
             +---------------------------------------------------+
             |                                                   |
             |                   WANNIER90                       |
             |                                                   |
             +---------------------------------------------------+
             |                                                   |
             |        Welcome to the Maximally-Localized         |
             |        Generalized Wannier Functions code         |
             |            http://www.wannier.org                 |
             |                                                   |
             |                                                   |
             |  Wannier90 Developer Group:                       |
             |    Giovanni Pizzi    (EPFL)                       |
             |    Valerio Vitale    (Cambridge)                  |
             |    David Vanderbilt  (Rutgers University)         |
             |    Nicola Marzari    (EPFL)                       |
             |    Ivo Souza         (Universidad del Pais Vasco) |
             |    Arash A. Mostofi  (Imperial College London)    |
             |    Jonathan R. Yates (University of Oxford)       |
             |                                                   |
             |  For the full list of Wannier90 3.x authors,      |
             |  please check the code documentation and the      |
             |  README on the GitHub page of the code            |
             |                                                   |
             |                                                   |
             |  Please cite                                      |
             |                                                   |
             |  [ref] "Wannier90 as a community code:            |
             |        new features and applications",            |
             |        G. Pizzi et al., J. Phys. Cond. Matt. 32,  |
             |        165902 (2020).                             |
             |        http://doi.org/10.1088/1361-648X/ab51ff    |
             |                                                   |
             |  in any publications arising from the use of      |
             |  this code. For the method please cite            |
             |                                                   |
             |  [ref] "Maximally Localized Generalised Wannier   |
             |         Functions for Composite Energy Bands"     |
             |         N. Marzari and D. Vanderbilt              |
             |         Phys. Rev. B 56 12847 (1997)              |
             |                                                   |
             |  [ref] "Maximally Localized Wannier Functions     |
             |         for Entangled Energy Bands"               |
             |         I. Souza, N. Marzari and D. Vanderbilt    |
             |         Phys. Rev. B 65 035109 (2001)             |
             |                                                   |
             |                                                   |
             | Copyright (c) 1996-2020                           |
             |        The Wannier90 Developer Group and          |
             |        individual contributors                    |
             |                                                   |
             |      Release: 3.1.0        5th March    2020      |
             |                                                   |
             | This program is free software; you can            |
             | redistribute it and/or modify it under the terms  |
             | of the GNU General Public License as published by |
             | the Free Software Foundation; either version 2 of |
             | the License, or (at your option) any later version|
             |                                                   |
             | This program is distributed in the hope that it   |
             | will be useful, but WITHOUT ANY WARRANTY; without |
             | even the implied warranty of MERCHANTABILITY or   |
             | FITNESS FOR A PARTICULAR PURPOSE. See the GNU     |
             | General Public License for more details.          |
             |                                                   |
             | You should have received a copy of the GNU General|
             | Public License along with this program; if not,   |
             | write to the Free Software Foundation, Inc.,      |
             | 675 Mass Ave, Cambridge, MA 02139, USA.           |
             |                                                   |
             +---------------------------------------------------+
             |    Execution started on  3Apr2025 at 10:20:44     |
             +---------------------------------------------------+
 
 ******************************************************************************
 * -> Using CODATA 2006 constant values                                       *
 *    (http://physics.nist.gov/cuu/Constants/index.html)                      *
 * -> Using Bohr value from CODATA                                            *
 ******************************************************************************
 

 Wannier90 is running in LIBRARY MODE

 Setting up k-point neighbours...


 Ignoring <num_bands> in input file
 Ignoring <mp_grid> in input file
 Ignoring <unit_cell_cart> in input file
 Ignoring <kpoints> in input file
 Ignoring <atoms_cart> in input file

                                    ------
                                    SYSTEM
                                    ------

                              Lattice Vectors (Ang)
                    a_1     6.608404   3.815364   0.000000
                    a_2    -6.608404   3.815364   0.000000
                    a_3    -4.405603   0.000000  13.746711

                   Unit Cell Volume:     693.20447  (Ang^3)

                        Reciprocal-Space Vectors (Ang^-1)
                    b_1     0.475394   0.823406   0.152356
                    b_2    -0.475394   0.823406  -0.152356
                    b_3     0.000000  -0.000000   0.457068
  
 *----------------------------------------------------------------------------*
 |   Site       Fractional Coordinate          Cartesian Coordinate (Ang)     |
 +----------------------------------------------------------------------------+
 | Nb   1   0.04656   0.95344   0.74685   |   -9.28332   3.81536  10.26675    |
 | Nb   2   0.04656   0.34627   0.74685   |   -5.27095   1.49882  10.26675    |
 | Nb   3   0.65373   0.95344   0.74685   |   -5.27095   6.13191  10.26675    |
 | Nb   4   0.95344   0.04656   0.25315   |    4.87772   3.81536   3.47996    |
 | Nb   5   0.95344   0.65373   0.25315   |    0.86534   6.13191   3.47996    |
 | Nb   6   0.34627   0.04656   0.25315   |    0.86534   1.49882   3.47996    |
 | I    1   0.86408   0.13592   0.59225   |    2.20280   3.81536   8.14152    |
 | I    2   0.38267   0.61733   0.63585   |   -4.35198   3.81536   8.74087    |
 | I    3   0.38267   0.12950   0.63585   |   -1.12821   1.95412   8.74087    |
 | I    4   0.87050   0.61733   0.63585   |   -1.12821   5.67661   8.74087    |
 | I    5   0.28425   0.71575   0.85275   |   -6.60840   3.81536  11.72246    |
 | I    6   0.79433   0.20567   0.88348   |   -0.00224   3.81536  12.14500    |
 | I    7   0.79433   0.70517   0.88348   |   -3.30308   5.72111  12.14500    |
 | I    8   0.29483   0.20567   0.88348   |   -3.30308   1.90962  12.14500    |
 | I    9   0.20567   0.79433   0.11652   |   -4.40336   3.81536   1.60171    |
 | I   10   0.20567   0.29483   0.11652   |   -1.10252   1.90962   1.60171    |
 | I   11   0.70517   0.79433   0.11652   |   -1.10252   5.72111   1.60171    |
 | I   12   0.71575   0.28425   0.14725   |    2.20280   3.81536   2.02425    |
 | I   13   0.61733   0.38267   0.36415   |   -0.05362   3.81536   5.00584    |
 | I   14   0.61733   0.87050   0.36415   |   -3.27739   5.67661   5.00584    |
 | I   15   0.12950   0.38267   0.36415   |   -3.27739   1.95412   5.00584    |
 | I   16   0.13592   0.86408   0.40775   |   -6.60840   3.81536   5.60519    |
 *----------------------------------------------------------------------------*
                                ------------
                                K-POINT GRID
                                ------------
  
             Grid size =  6 x  6 x  6      Total points =  216
  
  
 *---------------------------------- MAIN ------------------------------------*
 |  Number of Wannier Functions               :                 2             |
 |  Number of Objective Wannier Functions     :                 2             |
 |  Number of input Bloch states              :               288             |
 |  Output verbosity (1=low, 5=high)          :                 1             |
 |  Timing Level (1=low, 5=high)              :                 1             |
 |  Optimisation (0=memory, 3=speed)          :                 3             |
 |  Length Unit                               :               Ang             |
 |  Post-processing setup (write *.nnkp)      :                 F             |
 |  Using Gamma-only branch of algorithms     :                 F             |
 *----------------------------------------------------------------------------*
 *------------------------------- WANNIERISE ---------------------------------*
 |  Total number of iterations                :             10000             |
 |  Number of CG steps before reset           :                 5             |
 |  Trial step length for line search         :             2.000             |
 |  Convergence tolerence                     :         0.100E-12             |
 |  Convergence window                        :                -1             |
 |  Iterations between writing output         :               100             |
 |  Iterations between backing up to disk     :               100             |
 |  Write r^2_nm to file                      :                 F             |
 |  Write xyz WF centres to file              :                 F             |
 |  Write on-site energies <0n|H|0n> to file  :                 F             |
 |  Use guiding centre to control phases      :                 F             |
 |  Use phases for initial projections        :                 F             |
 *----------------------------------------------------------------------------*
 *------------------------------- DISENTANGLE --------------------------------*
 |  Using band disentanglement                :                 T             |
 |  Total number of iterations                :             10000             |
 |  Mixing ratio                              :             0.500             |
 |  Convergence tolerence                     :         1.000E-13             |
 |  Convergence window                        :                 3             |
 *----------------------------------------------------------------------------*
 *-------------------------------- PLOTTING ----------------------------------*
 |  Plotting interpolated bandstructure       :                 T             |
 |   Number of K-path sections                :                 7             |
 |   Divisions along first K-path section     :               100             |
 |   Output format                            :           gnuplot             |
 |   Output mode                              :               s-k             |
 *----------------------------------------------------------------------------*
 |   K-space path sections:                                                   |
 |    From: G       0.000  0.000  0.000     To: M       0.500  0.000 -0.167   |
 |    From: M       0.500  0.000 -0.167     To: K       0.333  0.333  0.000   |
 |    From: K       0.333  0.333  0.000     To: G       0.000  0.000  0.000   |
 |    From: G       0.000  0.000  0.000     To: A       0.000  0.000  0.500   |
 |    From: A       0.000  0.000  0.500     To: L       0.500  0.000  0.333   |
 |    From: L       0.500  0.000  0.333     To: H       0.333  0.333  0.500   |
 |    From: H       0.333  0.333  0.500     To: A       0.000  0.000  0.500   |
 *----------------------------------------------------------------------------*
 |  Plotting Hamiltonian in WF basis          :                 T             |
 *----------------------------------------------------------------------------*
 Time to read parameters        0.017 (sec)

 *---------------------------------- K-MESH ----------------------------------*
 +----------------------------------------------------------------------------+
 |                    Distance to Nearest-Neighbour Shells                    |
 |                    ------------------------------------                    |
 |          Shell             Distance (Ang^-1)          Multiplicity         |
 |          -----             -----------------          ------------         |
 |             1                   0.076178                      2            |
 |             2                   0.152356                      2            |
 |             3                   0.160486                      6            |
 |             4                   0.166404                      6            |
 |             5                   0.188222                      6            |
 |             6                   0.203053                      6            |
 |             7                   0.228534                      2            |
 |             8                   0.238129                      6            |
 |             9                   0.257638                      6            |
 |            10                   0.274469                      6            |
 |            11                   0.284844                     12            |
 |            12                   0.299316                      6            |
 |            13                   0.304712                      2            |
 |            14                   0.313919                     12            |
 |            15                   0.317945                      6            |
 |            16                   0.320972                      6            |
 |            17                   0.321139                      6            |
 |            18                   0.332807                      6            |
 |            19                   0.341414                      6            |
 |            20                   0.357157                     12            |
 |            21                   0.363371                      6            |
 |            22                   0.366170                      6            |
 |            23                   0.376444                      6            |
 |            24                   0.380890                      2            |
 |            25                   0.389217                      6            |
 |            26                   0.406107                      6            |
 |            27                   0.410101                     12            |
 |            28                   0.420026                     12            |
 |            29                   0.422322                     12            |
 |            30                   0.422449                      6            |
 |            31                   0.431386                     12            |
 |            32                   0.436093                      6            |
 |            33                   0.438060                     12            |
 |            34                   0.455381                     12            |
 |            35                   0.457068                      2            |
 |            36                   0.457617                      6            |
 +----------------------------------------------------------------------------+
 | The b-vectors are chosen automatically                                     |
 | The following shells are used:   1,  3                                     |
 +----------------------------------------------------------------------------+
 |                        Shell   # Nearest-Neighbours                        |
 |                        -----   --------------------                        |
 |                          1               2                                 |
 |                          3               6                                 |
 +----------------------------------------------------------------------------+
 | Completeness relation is fully satisfied [Eq. (B1), PRB 56, 12847 (1997)]  |
 +----------------------------------------------------------------------------+
 |                  b_k Vectors (Ang^-1) and Weights (Ang^2)                  |
 |                  ----------------------------------------                  |
 |            No.         b_k(x)      b_k(y)      b_k(z)        w_b           |
 |            ---        --------------------------------     --------        |
 |             1         0.000000    0.000000    0.076178    81.736136        |
 |             2         0.000000   -0.000000   -0.076178    81.736136        |
 |             3         0.079232    0.137234    0.025393    13.274393        |
 |             4        -0.079232   -0.137234   -0.025393    13.274393        |
 |             5         0.158465   -0.000000   -0.025393    13.274393        |
 |             6        -0.158465   -0.000000    0.025393    13.274393        |
 |             7        -0.079232    0.137234   -0.025393    13.274393        |
 |             8         0.079232   -0.137234    0.025393    13.274393        |
 +----------------------------------------------------------------------------+
 |                           b_k Directions (Ang^-1)                          |
 |                           -----------------------                          |
 |            No.           x           y           z                         |
 |            ---        --------------------------------                     |
 |             1         0.000000    0.000000    0.076178                     |
 |             2         0.079232    0.137234    0.025393                     |
 |             3         0.158465   -0.000000   -0.025393                     |
 |             4        -0.079232    0.137234   -0.025393                     |
 +----------------------------------------------------------------------------+
  
 Time to write kmesh            0.133 (sec)

 Finished setting up k-point neighbours.

 Exiting wannier_setup in wannier90 10:20:44 

 Resuming Wannier90 at 10:29:58 


 Ignoring <num_bands> in input file
 Ignoring <mp_grid> in input file
 Ignoring <unit_cell_cart> in input file
 Ignoring <kpoints> in input file
 Ignoring <atoms_cart> in input file

                                    ------
                                    SYSTEM
                                    ------

                              Lattice Vectors (Ang)
                    a_1     6.608404   3.815364   0.000000
                    a_2    -6.608404   3.815364   0.000000
                    a_3    -4.405603   0.000000  13.746711

                   Unit Cell Volume:     693.20447  (Ang^3)

                        Reciprocal-Space Vectors (Ang^-1)
                    b_1     0.475394   0.823406   0.152356
                    b_2    -0.475394   0.823406  -0.152356
                    b_3     0.000000  -0.000000   0.457068
  
 *----------------------------------------------------------------------------*
 |   Site       Fractional Coordinate          Cartesian Coordinate (Ang)     |
 +----------------------------------------------------------------------------+
 | Nb   1   0.04656   0.95344   0.74685   |   -9.28332   3.81536  10.26675    |
 | Nb   2   0.04656   0.34627   0.74685   |   -5.27095   1.49882  10.26675    |
 | Nb   3   0.65373   0.95344   0.74685   |   -5.27095   6.13191  10.26675    |
 | Nb   4   0.95344   0.04656   0.25315   |    4.87772   3.81536   3.47996    |
 | Nb   5   0.95344   0.65373   0.25315   |    0.86534   6.13191   3.47996    |
 | Nb   6   0.34627   0.04656   0.25315   |    0.86534   1.49882   3.47996    |
 | I    1   0.86408   0.13592   0.59225   |    2.20280   3.81536   8.14152    |
 | I    2   0.38267   0.61733   0.63585   |   -4.35198   3.81536   8.74087    |
 | I    3   0.38267   0.12950   0.63585   |   -1.12821   1.95412   8.74087    |
 | I    4   0.87050   0.61733   0.63585   |   -1.12821   5.67661   8.74087    |
 | I    5   0.28425   0.71575   0.85275   |   -6.60840   3.81536  11.72246    |
 | I    6   0.79433   0.20567   0.88348   |   -0.00224   3.81536  12.14500    |
 | I    7   0.79433   0.70517   0.88348   |   -3.30308   5.72111  12.14500    |
 | I    8   0.29483   0.20567   0.88348   |   -3.30308   1.90962  12.14500    |
 | I    9   0.20567   0.79433   0.11652   |   -4.40336   3.81536   1.60171    |
 | I   10   0.20567   0.29483   0.11652   |   -1.10252   1.90962   1.60171    |
 | I   11   0.70517   0.79433   0.11652   |   -1.10252   5.72111   1.60171    |
 | I   12   0.71575   0.28425   0.14725   |    2.20280   3.81536   2.02425    |
 | I   13   0.61733   0.38267   0.36415   |   -0.05362   3.81536   5.00584    |
 | I   14   0.61733   0.87050   0.36415   |   -3.27739   5.67661   5.00584    |
 | I   15   0.12950   0.38267   0.36415   |   -3.27739   1.95412   5.00584    |
 | I   16   0.13592   0.86408   0.40775   |   -6.60840   3.81536   5.60519    |
 *----------------------------------------------------------------------------*
                                ------------
                                K-POINT GRID
                                ------------
  
             Grid size =  6 x  6 x  6      Total points =  216
  
  
 *---------------------------------- MAIN ------------------------------------*
 |  Number of Wannier Functions               :                 2             |
 |  Number of Objective Wannier Functions     :                 2             |
 |  Number of input Bloch states              :               288             |
 |  Output verbosity (1=low, 5=high)          :                 1             |
 |  Timing Level (1=low, 5=high)              :                 1             |
 |  Optimisation (0=memory, 3=speed)          :                 3             |
 |  Length Unit                               :               Ang             |
 |  Post-processing setup (write *.nnkp)      :                 F             |
 |  Using Gamma-only branch of algorithms     :                 F             |
 *----------------------------------------------------------------------------*
 *------------------------------- WANNIERISE ---------------------------------*
 |  Total number of iterations                :             10000             |
 |  Number of CG steps before reset           :                 5             |
 |  Trial step length for line search         :             2.000             |
 |  Convergence tolerence                     :         0.100E-12             |
 |  Convergence window                        :                -1             |
 |  Iterations between writing output         :               100             |
 |  Iterations between backing up to disk     :               100             |
 |  Write r^2_nm to file                      :                 F             |
 |  Write xyz WF centres to file              :                 F             |
 |  Write on-site energies <0n|H|0n> to file  :                 F             |
 |  Use guiding centre to control phases      :                 F             |
 |  Use phases for initial projections        :                 F             |
 *----------------------------------------------------------------------------*
 *------------------------------- DISENTANGLE --------------------------------*
 |  Using band disentanglement                :                 T             |
 |  Total number of iterations                :             10000             |
 |  Mixing ratio                              :             0.500             |
 |  Convergence tolerence                     :         1.000E-13             |
 |  Convergence window                        :                 3             |
 *----------------------------------------------------------------------------*
 *-------------------------------- PLOTTING ----------------------------------*
 |  Plotting interpolated bandstructure       :                 T             |
 |   Number of K-path sections                :                 7             |
 |   Divisions along first K-path section     :               100             |
 |   Output format                            :           gnuplot             |
 |   Output mode                              :               s-k             |
 *----------------------------------------------------------------------------*
 |   K-space path sections:                                                   |
 |    From: G       0.000  0.000  0.000     To: M       0.500  0.000 -0.167   |
 |    From: M       0.500  0.000 -0.167     To: K       0.333  0.333  0.000   |
 |    From: K       0.333  0.333  0.000     To: G       0.000  0.000  0.000   |
 |    From: G       0.000  0.000  0.000     To: A       0.000  0.000  0.500   |
 |    From: A       0.000  0.000  0.500     To: L       0.500  0.000  0.333   |
 |    From: L       0.500  0.000  0.333     To: H       0.333  0.333  0.500   |
 |    From: H       0.333  0.333  0.500     To: A       0.000  0.000  0.500   |
 *----------------------------------------------------------------------------*
 |  Plotting Hamiltonian in WF basis          :                 T             |
 *----------------------------------------------------------------------------*
 Time to read parameters        0.018 (sec)

 *---------------------------------- K-MESH ----------------------------------*
 +----------------------------------------------------------------------------+
 |                    Distance to Nearest-Neighbour Shells                    |
 |                    ------------------------------------                    |
 |          Shell             Distance (Ang^-1)          Multiplicity         |
 |          -----             -----------------          ------------         |
 |             1                   0.076178                      2            |
 |             2                   0.152356                      2            |
 |             3                   0.160486                      6            |
 |             4                   0.166404                      6            |
 |             5                   0.188222                      6            |
 |             6                   0.203053                      6            |
 |             7                   0.228534                      2            |
 |             8                   0.238129                      6            |
 |             9                   0.257638                      6            |
 |            10                   0.274469                      6            |
 |            11                   0.284844                     12            |
 |            12                   0.299316                      6            |
 |            13                   0.304712                      2            |
 |            14                   0.313919                     12            |
 |            15                   0.317945                      6            |
 |            16                   0.320972                      6            |
 |            17                   0.321139                      6            |
 |            18                   0.332807                      6            |
 |            19                   0.341414                      6            |
 |            20                   0.357157                     12            |
 |            21                   0.363371                      6            |
 |            22                   0.366170                      6            |
 |            23                   0.376444                      6            |
 |            24                   0.380890                      2            |
 |            25                   0.389217                      6            |
 |            26                   0.406107                      6            |
 |            27                   0.410101                     12            |
 |            28                   0.420026                     12            |
 |            29                   0.422322                     12            |
 |            30                   0.422449                      6            |
 |            31                   0.431386                     12            |
 |            32                   0.436093                      6            |
 |            33                   0.438060                     12            |
 |            34                   0.455381                     12            |
 |            35                   0.457068                      2            |
 |            36                   0.457617                      6            |
 +----------------------------------------------------------------------------+
 | The b-vectors are chosen automatically                                     |
 | The following shells are used:   1,  3                                     |
 +----------------------------------------------------------------------------+
 |                        Shell   # Nearest-Neighbours                        |
 |                        -----   --------------------                        |
 |                          1               2                                 |
 |                          3               6                                 |
 +----------------------------------------------------------------------------+
 | Completeness relation is fully satisfied [Eq. (B1), PRB 56, 12847 (1997)]  |
 +----------------------------------------------------------------------------+
 |                  b_k Vectors (Ang^-1) and Weights (Ang^2)                  |
 |                  ----------------------------------------                  |
 |            No.         b_k(x)      b_k(y)      b_k(z)        w_b           |
 |            ---        --------------------------------     --------        |
 |             1         0.000000    0.000000    0.076178    81.736136        |
 |             2         0.000000   -0.000000   -0.076178    81.736136        |
 |             3         0.079232    0.137234    0.025393    13.274393        |
 |             4        -0.079232   -0.137234   -0.025393    13.274393        |
 |             5         0.158465   -0.000000   -0.025393    13.274393        |
 |             6        -0.158465   -0.000000    0.025393    13.274393        |
 |             7        -0.079232    0.137234   -0.025393    13.274393        |
 |             8         0.079232   -0.137234    0.025393    13.274393        |
 +----------------------------------------------------------------------------+
 |                           b_k Directions (Ang^-1)                          |
 |                           -----------------------                          |
 |            No.           x           y           z                         |
 |            ---        --------------------------------                     |
 |             1         0.000000    0.000000    0.076178                     |
 |             2         0.079232    0.137234    0.025393                     |
 |             3         0.158465   -0.000000   -0.025393                     |
 |             4        -0.079232    0.137234   -0.025393                     |
 +----------------------------------------------------------------------------+
  
 Time to get kmesh              0.115 (sec)

 *------------------------------- DISENTANGLE --------------------------------*
 +----------------------------------------------------------------------------+
 |                              Energy  Windows                               |
 |                              ---------------                               |
 |                   Outer:  -49.24892  to   25.77099  (eV)                   |
 |                   Inner:    5.80000  to    6.80000  (eV)                   |
 +----------------------------------------------------------------------------+
   Number of target bands to extract:    2

                   Unitarised projection of Wannier functions                  
                   ------------------------------------------                  
   A_mn = <psi_m|g_n> --> S = A.A^+ --> U = S^-1/2.A
   In dis_project... done
   Using an inner window (linner = T)
   In dis_proj_froz... done

                   Extraction of optimally-connected subspace                  
                   ------------------------------------------                  
 +---------------------------------------------------------------------+<-- DIS
 |  Iter     Omega_I(i-1)      Omega_I(i)      Delta (frac.)    Time   |<-- DIS
 +---------------------------------------------------------------------+<-- DIS
       1      25.93296164      25.93296164       8.882E-16      0.00    <-- DIS
       2      25.93296164      25.93296164       8.882E-16      0.99    <-- DIS
       3      25.93296164      25.93296164       8.882E-16      1.98    <-- DIS

             <<<      Delta < 1.000E-13  over  3 iterations     >>>
             <<< Disentanglement convergence criteria satisfied >>>

        Final Omega_I    25.93296164 (Ang^2)

 +----------------------------------------------------------------------------+


 Writing checkpoint file wannier90.chk... done

 Time to disentangle            7.494 (sec)

 *------------------------------- WANNIERISE ---------------------------------*
 +--------------------------------------------------------------------+<-- CONV
 | Iter  Delta Spread     RMS Gradient      Spread (Ang^2)      Time  |<-- CONV
 +--------------------------------------------------------------------+<-- CONV

 ------------------------------------------------------------------------------
 Initial State
  WF centre and spread    1  ( -0.000000,  0.000000,  3.157321 )    13.88231359
  WF centre and spread    2  (  0.000000, -0.000000, -3.157321 )    13.88231359
  Sum of centres and spreads ( -0.000000,  0.000000, -0.000000 )    27.76462718

      0     0.278E+02     0.0000000000       27.7646271828       2.62  <-- CONV
        O_D=      1.7906955 O_OD=      0.0409700 O_TOT=     27.7646272 <-- SPRD
 ------------------------------------------------------------------------------
 Cycle:      1
  WF centre and spread    1  ( -0.000000,  0.000000,  3.157321 )    13.16498569
  WF centre and spread    2  (  0.000000, -0.000000, -3.157321 )    13.16498569
  Sum of centres and spreads (  0.000000,  0.000000, -0.000000 )    26.32997137

      1    -0.143E+01     2.3794249661       26.3299713738       2.63  <-- CONV
        O_D=      0.3560397 O_OD=      0.0409700 O_TOT=     26.3299714 <-- SPRD
 Delta: O_D= -0.1434656E+01 O_OD=  0.6347235E-11 O_TOT= -0.1434656E+01 <-- DLTA
 ------------------------------------------------------------------------------
 Cycle:    100
  WF centre and spread    1  ( -0.000000,  0.000000,  3.157321 )    13.14482858
  WF centre and spread    2  (  0.000000, -0.000000, -3.157321 )    13.14482858
  Sum of centres and spreads ( -0.000000, -0.000000, -0.000000 )    26.28965716

    100    -0.178E-13     0.0000013497       26.2896571611       3.00  <-- CONV
        O_D=      0.3157255 O_OD=      0.0409700 O_TOT=     26.2896572 <-- SPRD
 Delta: O_D= -0.1509903E-13 O_OD=  0.9714451E-16 O_TOT= -0.1776357E-13 <-- DLTA
 ------------------------------------------------------------------------------

 Writing checkpoint file wannier90.chk... done

 Cycle:    200
  WF centre and spread    1  ( -0.000000,  0.000000,  3.157321 )    13.14482858
  WF centre and spread    2  (  0.000000, -0.000000, -3.157321 )    13.14482858
  Sum of centres and spreads ( -0.000000, -0.000000, -0.000000 )    26.28965716

    200     0.000E+00     0.0000003795       26.2896571611       3.35  <-- CONV
        O_D=      0.3157255 O_OD=      0.0409700 O_TOT=     26.2896572 <-- SPRD
 Delta: O_D= -0.4440892E-15 O_OD= -0.6938894E-17 O_TOT=  0.0000000E+00 <-- DLTA
 ------------------------------------------------------------------------------

 Writing checkpoint file wannier90.chk... done

 Cycle:    300
  WF centre and spread    1  ( -0.000000,  0.000000,  3.157321 )    13.14482858
  WF centre and spread    2  (  0.000000, -0.000000, -3.157321 )    13.14482858
  Sum of centres and spreads ( -0.000000, -0.000000, -0.000000 )    26.28965716

    300     0.000E+00     0.0000001114       26.2896571611       3.70  <-- CONV
        O_D=      0.3157255 O_OD=      0.0409700 O_TOT=     26.2896572 <-- SPRD
 Delta: O_D= -0.4996004E-15 O_OD=  0.2151057E-15 O_TOT=  0.0000000E+00 <-- DLTA
 ------------------------------------------------------------------------------

 Writing checkpoint file wannier90.chk... done

 Cycle:    400
  WF centre and spread    1  ( -0.000000,  0.000000,  3.157321 )    13.14482858
  WF centre and spread    2  (  0.000000, -0.000000, -3.157321 )    13.14482858
  Sum of centres and spreads ( -0.000000, -0.000000, -0.000000 )    26.28965716

    400     0.000E+00     0.0000000351       26.2896571611       4.05  <-- CONV
        O_D=      0.3157255 O_OD=      0.0409700 O_TOT=     26.2896572 <-- SPRD
 Delta: O_D= -0.8326673E-15 O_OD=  0.7632783E-16 O_TOT=  0.0000000E+00 <-- DLTA
 ------------------------------------------------------------------------------

 Writing checkpoint file wannier90.chk... done

 Cycle:    500
  WF centre and spread    1  ( -0.000000,  0.000000,  3.157321 )    13.14482858
  WF centre and spread    2  (  0.000000, -0.000000, -3.157321 )    13.14482858
  Sum of centres and spreads ( -0.000000, -0.000000, -0.000000 )    26.28965716

    500     0.000E+00     0.0000000141       26.2896571611       4.40  <-- CONV
        O_D=      0.3157255 O_OD=      0.0409700 O_TOT=     26.2896572 <-- SPRD
 Delta: O_D= -0.8326673E-15 O_OD=  0.1040834E-15 O_TOT=  0.0000000E+00 <-- DLTA
 ------------------------------------------------------------------------------

 Writing checkpoint file wannier90.chk... done

 Cycle:    600
  WF centre and spread    1  ( -0.000000,  0.000000,  3.157321 )    13.14482858
  WF centre and spread    2  (  0.000000, -0.000000, -3.157321 )    13.14482858
  Sum of centres and spreads ( -0.000000, -0.000000, -0.000000 )    26.28965716

    600     0.000E+00     0.0000000109       26.2896571611       4.76  <-- CONV
        O_D=      0.3157255 O_OD=      0.0409700 O_TOT=     26.2896572 <-- SPRD
 Delta: O_D=  0.2220446E-15 O_OD= -0.1387779E-15 O_TOT=  0.0000000E+00 <-- DLTA
 ------------------------------------------------------------------------------

 Writing checkpoint file wannier90.chk... done

 Cycle:    700
  WF centre and spread    1  ( -0.000000,  0.000000,  3.157321 )    13.14482858
  WF centre and spread    2  (  0.000000, -0.000000, -3.157321 )    13.14482858
  Sum of centres and spreads ( -0.000000, -0.000000, -0.000000 )    26.28965716

    700     0.000E+00     0.0000000087       26.2896571611       5.11  <-- CONV
        O_D=      0.3157255 O_OD=      0.0409700 O_TOT=     26.2896572 <-- SPRD
 Delta: O_D=  0.3330669E-15 O_OD=  0.1387779E-16 O_TOT=  0.0000000E+00 <-- DLTA
 ------------------------------------------------------------------------------

 Writing checkpoint file wannier90.chk... done

 Cycle:    800
  WF centre and spread    1  ( -0.000000,  0.000000,  3.157321 )    13.14482858
  WF centre and spread    2  (  0.000000, -0.000000, -3.157321 )    13.14482858
  Sum of centres and spreads ( -0.000000, -0.000000, -0.000000 )    26.28965716

    800    -0.355E-14     0.0000000071       26.2896571611       5.46  <-- CONV
        O_D=      0.3157255 O_OD=      0.0409700 O_TOT=     26.2896572 <-- SPRD
 Delta: O_D= -0.7771561E-15 O_OD=  0.1665335E-15 O_TOT= -0.3552714E-14 <-- DLTA
 ------------------------------------------------------------------------------

 Writing checkpoint file wannier90.chk... done

 Cycle:    900
  WF centre and spread    1  ( -0.000000,  0.000000,  3.157321 )    13.14482858
  WF centre and spread    2  (  0.000000, -0.000000, -3.157321 )    13.14482858
  Sum of centres and spreads ( -0.000000, -0.000000, -0.000000 )    26.28965716

    900     0.355E-14     0.0000000059       26.2896571611       5.81  <-- CONV
        O_D=      0.3157255 O_OD=      0.0409700 O_TOT=     26.2896572 <-- SPRD
 Delta: O_D=  0.9436896E-15 O_OD=  0.6938894E-17 O_TOT=  0.3552714E-14 <-- DLTA
 ------------------------------------------------------------------------------

 Writing checkpoint file wannier90.chk... done

 Cycle:   1000
  WF centre and spread    1  ( -0.000000,  0.000000,  3.157321 )    13.14482858
  WF centre and spread    2  (  0.000000, -0.000000, -3.157321 )    13.14482858
  Sum of centres and spreads ( -0.000000, -0.000000, -0.000000 )    26.28965716

   1000     0.000E+00     0.0000000050       26.2896571611       6.17  <-- CONV
        O_D=      0.3157255 O_OD=      0.0409700 O_TOT=     26.2896572 <-- SPRD
 Delta: O_D= -0.1221245E-14 O_OD= -0.1318390E-15 O_TOT=  0.0000000E+00 <-- DLTA
 ------------------------------------------------------------------------------

 Writing checkpoint file wannier90.chk... done

 Cycle:   1100
  WF centre and spread    1  ( -0.000000,  0.000000,  3.157321 )    13.14482858
  WF centre and spread    2  (  0.000000, -0.000000, -3.157321 )    13.14482858
  Sum of centres and spreads ( -0.000000, -0.000000, -0.000000 )    26.28965716

   1100     0.000E+00     0.0000000044       26.2896571611       6.52  <-- CONV
        O_D=      0.3157255 O_OD=      0.0409700 O_TOT=     26.2896572 <-- SPRD
 Delta: O_D= -0.6661338E-15 O_OD= -0.5551115E-16 O_TOT=  0.0000000E+00 <-- DLTA
 ------------------------------------------------------------------------------

 Writing checkpoint file wannier90.chk... done

 Cycle:   1200
  WF centre and spread    1  ( -0.000000,  0.000000,  3.157321 )    13.14482858
  WF centre and spread    2  (  0.000000, -0.000000, -3.157321 )    13.14482858
  Sum of centres and spreads ( -0.000000, -0.000000, -0.000000 )    26.28965716

   1200     0.000E+00     0.0000000038       26.2896571611       6.87  <-- CONV
        O_D=      0.3157255 O_OD=      0.0409700 O_TOT=     26.2896572 <-- SPRD
 Delta: O_D= -0.1221245E-14 O_OD= -0.1804112E-15 O_TOT=  0.0000000E+00 <-- DLTA
 ------------------------------------------------------------------------------

 Writing checkpoint file wannier90.chk... done

 Cycle:   1300
  WF centre and spread    1  ( -0.000000,  0.000000,  3.157321 )    13.14482858
  WF centre and spread    2  (  0.000000, -0.000000, -3.157321 )    13.14482858
  Sum of centres and spreads ( -0.000000, -0.000000, -0.000000 )    26.28965716

   1300     0.355E-14     0.0000000034       26.2896571611       7.22  <-- CONV
        O_D=      0.3157255 O_OD=      0.0409700 O_TOT=     26.2896572 <-- SPRD
 Delta: O_D=  0.1110223E-14 O_OD= -0.2775558E-16 O_TOT=  0.3552714E-14 <-- DLTA
 ------------------------------------------------------------------------------

 Writing checkpoint file wannier90.chk... done

 Cycle:   1400
  WF centre and spread    1  ( -0.000000,  0.000000,  3.157321 )    13.14482858
  WF centre and spread    2  (  0.000000, -0.000000, -3.157321 )    13.14482858
  Sum of centres and spreads ( -0.000000, -0.000000, -0.000000 )    26.28965716

   1400     0.000E+00     0.0000000030       26.2896571611       7.57  <-- CONV
        O_D=      0.3157255 O_OD=      0.0409700 O_TOT=     26.2896572 <-- SPRD
 Delta: O_D= -0.5551115E-16 O_OD=  0.2775558E-16 O_TOT=  0.0000000E+00 <-- DLTA
 ------------------------------------------------------------------------------

 Writing checkpoint file wannier90.chk... done

 Cycle:   1500
  WF centre and spread    1  ( -0.000000,  0.000000,  3.157321 )    13.14482858
  WF centre and spread    2  (  0.000000, -0.000000, -3.157321 )    13.14482858
  Sum of centres and spreads ( -0.000000, -0.000000, -0.000000 )    26.28965716

   1500     0.000E+00     0.0000000029       26.2896571611       8.05  <-- CONV
        O_D=      0.3157255 O_OD=      0.0409700 O_TOT=     26.2896572 <-- SPRD
 Delta: O_D=  0.8881784E-15 O_OD=  0.7632783E-16 O_TOT=  0.0000000E+00 <-- DLTA
 ------------------------------------------------------------------------------

 Writing checkpoint file wannier90.chk... done

 Cycle:   1600
  WF centre and spread    1  ( -0.000000,  0.000000,  3.157321 )    13.14482858
  WF centre and spread    2  (  0.000000, -0.000000, -3.157321 )    13.14482858
  Sum of centres and spreads ( -0.000000, -0.000000, -0.000000 )    26.28965716

   1600     0.355E-14     0.0000000026       26.2896571611       8.40  <-- CONV
        O_D=      0.3157255 O_OD=      0.0409700 O_TOT=     26.2896572 <-- SPRD
 Delta: O_D=  0.1554312E-14 O_OD=  0.1387779E-16 O_TOT=  0.3552714E-14 <-- DLTA
 ------------------------------------------------------------------------------

 Writing checkpoint file wannier90.chk... done

 Cycle:   1700
  WF centre and spread    1  ( -0.000000,  0.000000,  3.157321 )    13.14482858
  WF centre and spread    2  (  0.000000, -0.000000, -3.157321 )    13.14482858
  Sum of centres and spreads ( -0.000000, -0.000000, -0.000000 )    26.28965716

   1700     0.000E+00     0.0000000023       26.2896571611       8.75  <-- CONV
        O_D=      0.3157255 O_OD=      0.0409700 O_TOT=     26.2896572 <-- SPRD
 Delta: O_D=  0.3885781E-15 O_OD= -0.1318390E-15 O_TOT=  0.0000000E+00 <-- DLTA
 ------------------------------------------------------------------------------

 Writing checkpoint file wannier90.chk... done

 Cycle:   1800
  WF centre and spread    1  ( -0.000000,  0.000000,  3.157321 )    13.14482858
  WF centre and spread    2  (  0.000000, -0.000000, -3.157321 )    13.14482858
  Sum of centres and spreads ( -0.000000, -0.000000, -0.000000 )    26.28965716

   1800     0.000E+00     0.0000000021       26.2896571611       9.10  <-- CONV
        O_D=      0.3157255 O_OD=      0.0409700 O_TOT=     26.2896572 <-- SPRD
 Delta: O_D=  0.1665335E-15 O_OD= -0.5551115E-16 O_TOT=  0.0000000E+00 <-- DLTA
 ------------------------------------------------------------------------------

 Writing checkpoint file wannier90.chk... done

 Cycle:   1900
  WF centre and spread    1  ( -0.000000,  0.000000,  3.157321 )    13.14482858
  WF centre and spread    2  (  0.000000, -0.000000, -3.157321 )    13.14482858
  Sum of centres and spreads ( -0.000000, -0.000000, -0.000000 )    26.28965716

   1900     0.000E+00     0.0000000019       26.2896571611       9.45  <-- CONV
        O_D=      0.3157255 O_OD=      0.0409700 O_TOT=     26.2896572 <-- SPRD
 Delta: O_D=  0.7216450E-15 O_OD=  0.1734723E-15 O_TOT=  0.0000000E+00 <-- DLTA
 ------------------------------------------------------------------------------

 Writing checkpoint file wannier90.chk... done

 Cycle:   2000
  WF centre and spread    1  ( -0.000000,  0.000000,  3.157321 )    13.14482858
  WF centre and spread    2  (  0.000000, -0.000000, -3.157321 )    13.14482858
  Sum of centres and spreads ( -0.000000, -0.000000, -0.000000 )    26.28965716

   2000     0.355E-14     0.0000000017       26.2896571611       9.80  <-- CONV
        O_D=      0.3157255 O_OD=      0.0409700 O_TOT=     26.2896572 <-- SPRD
 Delta: O_D=  0.1165734E-14 O_OD= -0.3469447E-16 O_TOT=  0.3552714E-14 <-- DLTA
 ------------------------------------------------------------------------------

 Writing checkpoint file wannier90.chk... done

 Cycle:   2100
  WF centre and spread    1  ( -0.000000,  0.000000,  3.157321 )    13.14482858
  WF centre and spread    2  (  0.000000, -0.000000, -3.157321 )    13.14482858
  Sum of centres and spreads ( -0.000000, -0.000000, -0.000000 )    26.28965716

   2100     0.000E+00     0.0000000015       26.2896571611      10.16  <-- CONV
        O_D=      0.3157255 O_OD=      0.0409700 O_TOT=     26.2896572 <-- SPRD
 Delta: O_D= -0.3885781E-15 O_OD= -0.1387779E-15 O_TOT=  0.0000000E+00 <-- DLTA
 ------------------------------------------------------------------------------

 Writing checkpoint file wannier90.chk... done

 Cycle:   2200
  WF centre and spread    1  ( -0.000000,  0.000000,  3.157321 )    13.14482858
  WF centre and spread    2  (  0.000000, -0.000000, -3.157321 )    13.14482858
  Sum of centres and spreads ( -0.000000, -0.000000, -0.000000 )    26.28965716

   2200     0.000E+00     0.0000000014       26.2896571611      10.50  <-- CONV
        O_D=      0.3157255 O_OD=      0.0409700 O_TOT=     26.2896572 <-- SPRD
 Delta: O_D=  0.5551115E-16 O_OD= -0.1040834E-15 O_TOT=  0.0000000E+00 <-- DLTA
 ------------------------------------------------------------------------------

 Writing checkpoint file wannier90.chk... done

 Cycle:   2300
  WF centre and spread    1  ( -0.000000,  0.000000,  3.157321 )    13.14482858
  WF centre and spread    2  (  0.000000, -0.000000, -3.157321 )    13.14482858
  Sum of centres and spreads ( -0.000000, -0.000000, -0.000000 )    26.28965716

   2300     0.000E+00     0.0000000013       26.2896571611      10.86  <-- CONV
        O_D=      0.3157255 O_OD=      0.0409700 O_TOT=     26.2896572 <-- SPRD
 Delta: O_D= -0.6661338E-15 O_OD= -0.4163336E-16 O_TOT=  0.0000000E+00 <-- DLTA
 ------------------------------------------------------------------------------

 Writing checkpoint file wannier90.chk... done

 Cycle:   2400
  WF centre and spread    1  ( -0.000000,  0.000000,  3.157321 )    13.14482858
  WF centre and spread    2  (  0.000000, -0.000000, -3.157321 )    13.14482858
  Sum of centres and spreads ( -0.000000, -0.000000, -0.000000 )    26.28965716

   2400     0.355E-14     0.0000000011       26.2896571611      11.21  <-- CONV
        O_D=      0.3157255 O_OD=      0.0409700 O_TOT=     26.2896572 <-- SPRD
 Delta: O_D=  0.5551115E-15 O_OD= -0.1179612E-15 O_TOT=  0.3552714E-14 <-- DLTA
 ------------------------------------------------------------------------------

 Writing checkpoint file wannier90.chk... done

 Cycle:   2500
  WF centre and spread    1  ( -0.000000,  0.000000,  3.157321 )    13.14482858
  WF centre and spread    2  (  0.000000, -0.000000, -3.157321 )    13.14482858
  Sum of centres and spreads ( -0.000000, -0.000000, -0.000000 )    26.28965716

   2500     0.000E+00     0.0000000010       26.2896571611      11.56  <-- CONV
        O_D=      0.3157255 O_OD=      0.0409700 O_TOT=     26.2896572 <-- SPRD
 Delta: O_D= -0.1720846E-14 O_OD=  0.2775558E-15 O_TOT=  0.0000000E+00 <-- DLTA
 ------------------------------------------------------------------------------

 Writing checkpoint file wannier90.chk... done

 Cycle:   2600
  WF centre and spread    1  ( -0.000000,  0.000000,  3.157321 )    13.14482858
  WF centre and spread    2  (  0.000000, -0.000000, -3.157321 )    13.14482858
  Sum of centres and spreads ( -0.000000, -0.000000, -0.000000 )    26.28965716

   2600    -0.355E-14     0.0000000009       26.2896571611      11.91  <-- CONV
        O_D=      0.3157255 O_OD=      0.0409700 O_TOT=     26.2896572 <-- SPRD
 Delta: O_D= -0.5551115E-16 O_OD= -0.4163336E-16 O_TOT= -0.3552714E-14 <-- DLTA
 ------------------------------------------------------------------------------

 Writing checkpoint file wannier90.chk... done

 Cycle:   2700
  WF centre and spread    1  ( -0.000000,  0.000000,  3.157321 )    13.14482858
  WF centre and spread    2  (  0.000000, -0.000000, -3.157321 )    13.14482858
  Sum of centres and spreads ( -0.000000, -0.000000, -0.000000 )    26.28965716

   2700     0.000E+00     0.0000000008       26.2896571611      12.26  <-- CONV
        O_D=      0.3157255 O_OD=      0.0409700 O_TOT=     26.2896572 <-- SPRD
 Delta: O_D=  0.1665335E-14 O_OD= -0.9020562E-16 O_TOT=  0.0000000E+00 <-- DLTA
 ------------------------------------------------------------------------------

 Writing checkpoint file wannier90.chk... done

 Cycle:   2800
  WF centre and spread    1  ( -0.000000,  0.000000,  3.157321 )    13.14482858
  WF centre and spread    2  (  0.000000, -0.000000, -3.157321 )    13.14482858
  Sum of centres and spreads ( -0.000000, -0.000000, -0.000000 )    26.28965716

   2800    -0.355E-14     0.0000000008       26.2896571611      12.62  <-- CONV
        O_D=      0.3157255 O_OD=      0.0409700 O_TOT=     26.2896572 <-- SPRD
 Delta: O_D= -0.3885781E-15 O_OD= -0.1040834E-15 O_TOT= -0.3552714E-14 <-- DLTA
 ------------------------------------------------------------------------------

 Writing checkpoint file wannier90.chk... done

 Cycle:   2900
  WF centre and spread    1  ( -0.000000,  0.000000,  3.157321 )    13.14482858
  WF centre and spread    2  (  0.000000, -0.000000, -3.157321 )    13.14482858
  Sum of centres and spreads ( -0.000000, -0.000000, -0.000000 )    26.28965716

   2900     0.000E+00     0.0000000007       26.2896571611      12.97  <-- CONV
        O_D=      0.3157255 O_OD=      0.0409700 O_TOT=     26.2896572 <-- SPRD
 Delta: O_D= -0.1998401E-14 O_OD=  0.5551115E-16 O_TOT=  0.0000000E+00 <-- DLTA
 ------------------------------------------------------------------------------

 Writing checkpoint file wannier90.chk... done

 Cycle:   3000
  WF centre and spread    1  ( -0.000000,  0.000000,  3.157321 )    13.14482858
  WF centre and spread    2  (  0.000000, -0.000000, -3.157321 )    13.14482858
  Sum of centres and spreads ( -0.000000, -0.000000, -0.000000 )    26.28965716

   3000     0.000E+00     0.0000000006       26.2896571611      13.32  <-- CONV
        O_D=      0.3157255 O_OD=      0.0409700 O_TOT=     26.2896572 <-- SPRD
 Delta: O_D= -0.9992007E-15 O_OD=  0.1387779E-16 O_TOT=  0.0000000E+00 <-- DLTA
 ------------------------------------------------------------------------------

 Writing checkpoint file wannier90.chk... done

 Cycle:   3100
  WF centre and spread    1  ( -0.000000,  0.000000,  3.157321 )    13.14482858
  WF centre and spread    2  (  0.000000, -0.000000, -3.157321 )    13.14482858
  Sum of centres and spreads ( -0.000000, -0.000000, -0.000000 )    26.28965716

   3100     0.000E+00     0.0000000006       26.2896571611      13.67  <-- CONV
        O_D=      0.3157255 O_OD=      0.0409700 O_TOT=     26.2896572 <-- SPRD
 Delta: O_D=  0.1054712E-14 O_OD= -0.8326673E-16 O_TOT=  0.0000000E+00 <-- DLTA
 ------------------------------------------------------------------------------

 Writing checkpoint file wannier90.chk... done

 Cycle:   3200
  WF centre and spread    1  ( -0.000000,  0.000000,  3.157321 )    13.14482858
  WF centre and spread    2  (  0.000000, -0.000000, -3.157321 )    13.14482858
  Sum of centres and spreads ( -0.000000, -0.000000, -0.000000 )    26.28965716

   3200    -0.355E-14     0.0000000005       26.2896571611      14.02  <-- CONV
        O_D=      0.3157255 O_OD=      0.0409700 O_TOT=     26.2896572 <-- SPRD
 Delta: O_D= -0.5551115E-15 O_OD= -0.1595946E-15 O_TOT= -0.3552714E-14 <-- DLTA
 ------------------------------------------------------------------------------

 Writing checkpoint file wannier90.chk... done

 Cycle:   3300
  WF centre and spread    1  ( -0.000000,  0.000000,  3.157321 )    13.14482858
  WF centre and spread    2  (  0.000000, -0.000000, -3.157321 )    13.14482858
  Sum of centres and spreads ( -0.000000, -0.000000, -0.000000 )    26.28965716

   3300     0.000E+00     0.0000000005       26.2896571611      14.37  <-- CONV
        O_D=      0.3157255 O_OD=      0.0409700 O_TOT=     26.2896572 <-- SPRD
 Delta: O_D=  0.2220446E-15 O_OD=  0.9714451E-16 O_TOT=  0.0000000E+00 <-- DLTA
 ------------------------------------------------------------------------------

 Writing checkpoint file wannier90.chk... done

 Cycle:   3400
  WF centre and spread    1  ( -0.000000,  0.000000,  3.157321 )    13.14482858
  WF centre and spread    2  (  0.000000, -0.000000, -3.157321 )    13.14482858
  Sum of centres and spreads ( -0.000000, -0.000000, -0.000000 )    26.28965716

   3400     0.000E+00     0.0000000004       26.2896571611      14.73  <-- CONV
        O_D=      0.3157255 O_OD=      0.0409700 O_TOT=     26.2896572 <-- SPRD
 Delta: O_D= -0.2220446E-15 O_OD=  0.4163336E-16 O_TOT=  0.0000000E+00 <-- DLTA
 ------------------------------------------------------------------------------

 Writing checkpoint file wannier90.chk... done

 Cycle:   3500
  WF centre and spread    1  ( -0.000000,  0.000000,  3.157321 )    13.14482858
  WF centre and spread    2  (  0.000000, -0.000000, -3.157321 )    13.14482858
  Sum of centres and spreads ( -0.000000, -0.000000, -0.000000 )    26.28965716

   3500     0.000E+00     0.0000000004       26.2896571611      15.08  <-- CONV
        O_D=      0.3157255 O_OD=      0.0409700 O_TOT=     26.2896572 <-- SPRD
 Delta: O_D= -0.6661338E-15 O_OD= -0.1387779E-16 O_TOT=  0.0000000E+00 <-- DLTA
 ------------------------------------------------------------------------------

 Writing checkpoint file wannier90.chk... done

 Cycle:   3600
  WF centre and spread    1  ( -0.000000,  0.000000,  3.157321 )    13.14482858
  WF centre and spread    2  (  0.000000, -0.000000, -3.157321 )    13.14482858
  Sum of centres and spreads ( -0.000000, -0.000000, -0.000000 )    26.28965716

   3600     0.000E+00     0.0000000004       26.2896571611      15.43  <-- CONV
        O_D=      0.3157255 O_OD=      0.0409700 O_TOT=     26.2896572 <-- SPRD
 Delta: O_D= -0.1165734E-14 O_OD= -0.1665335E-15 O_TOT=  0.0000000E+00 <-- DLTA
 ------------------------------------------------------------------------------

 Writing checkpoint file wannier90.chk... done

 Cycle:   3700
  WF centre and spread    1  ( -0.000000,  0.000000,  3.157321 )    13.14482858
  WF centre and spread    2  (  0.000000, -0.000000, -3.157321 )    13.14482858
  Sum of centres and spreads ( -0.000000, -0.000000, -0.000000 )    26.28965716

   3700     0.000E+00     0.0000000003       26.2896571611      15.78  <-- CONV
        O_D=      0.3157255 O_OD=      0.0409700 O_TOT=     26.2896572 <-- SPRD
 Delta: O_D=  0.7771561E-15 O_OD= -0.6938894E-17 O_TOT=  0.0000000E+00 <-- DLTA
 ------------------------------------------------------------------------------

 Writing checkpoint file wannier90.chk... done

 Cycle:   3800
  WF centre and spread    1  ( -0.000000,  0.000000,  3.157321 )    13.14482858
  WF centre and spread    2  (  0.000000, -0.000000, -3.157321 )    13.14482858
  Sum of centres and spreads ( -0.000000, -0.000000, -0.000000 )    26.28965716

   3800     0.000E+00     0.0000000003       26.2896571611      16.13  <-- CONV
        O_D=      0.3157255 O_OD=      0.0409700 O_TOT=     26.2896572 <-- SPRD
 Delta: O_D= -0.1665335E-15 O_OD= -0.1387779E-16 O_TOT=  0.0000000E+00 <-- DLTA
 ------------------------------------------------------------------------------

 Writing checkpoint file wannier90.chk... done

 Cycle:   3900
  WF centre and spread    1  ( -0.000000,  0.000000,  3.157321 )    13.14482858
  WF centre and spread    2  (  0.000000, -0.000000, -3.157321 )    13.14482858
  Sum of centres and spreads ( -0.000000, -0.000000, -0.000000 )    26.28965716

   3900     0.000E+00     0.0000000003       26.2896571611      16.48  <-- CONV
        O_D=      0.3157255 O_OD=      0.0409700 O_TOT=     26.2896572 <-- SPRD
 Delta: O_D=  0.8326673E-15 O_OD= -0.1249001E-15 O_TOT=  0.0000000E+00 <-- DLTA
 ------------------------------------------------------------------------------

 Writing checkpoint file wannier90.chk... done

 Cycle:   4000
  WF centre and spread    1  ( -0.000000,  0.000000,  3.157321 )    13.14482858
  WF centre and spread    2  (  0.000000, -0.000000, -3.157321 )    13.14482858
  Sum of centres and spreads ( -0.000000, -0.000000, -0.000000 )    26.28965716

   4000     0.000E+00     0.0000000002       26.2896571611      16.83  <-- CONV
        O_D=      0.3157255 O_OD=      0.0409700 O_TOT=     26.2896572 <-- SPRD
 Delta: O_D=  0.4996004E-15 O_OD= -0.6938894E-17 O_TOT=  0.0000000E+00 <-- DLTA
 ------------------------------------------------------------------------------

 Writing checkpoint file wannier90.chk... done

 Cycle:   4100
  WF centre and spread    1  ( -0.000000,  0.000000,  3.157321 )    13.14482858
  WF centre and spread    2  (  0.000000, -0.000000, -3.157321 )    13.14482858
  Sum of centres and spreads ( -0.000000, -0.000000, -0.000000 )    26.28965716

   4100    -0.355E-14     0.0000000002       26.2896571611      17.18  <-- CONV
        O_D=      0.3157255 O_OD=      0.0409700 O_TOT=     26.2896572 <-- SPRD
 Delta: O_D= -0.7216450E-15 O_OD=  0.5551115E-16 O_TOT= -0.3552714E-14 <-- DLTA
 ------------------------------------------------------------------------------

 Writing checkpoint file wannier90.chk... done

 Cycle:   4200
  WF centre and spread    1  ( -0.000000,  0.000000,  3.157321 )    13.14482858
  WF centre and spread    2  (  0.000000, -0.000000, -3.157321 )    13.14482858
  Sum of centres and spreads ( -0.000000, -0.000000, -0.000000 )    26.28965716

   4200     0.000E+00     0.0000000002       26.2896571611      17.53  <-- CONV
        O_D=      0.3157255 O_OD=      0.0409700 O_TOT=     26.2896572 <-- SPRD
 Delta: O_D=  0.7216450E-15 O_OD=  0.1387779E-16 O_TOT=  0.0000000E+00 <-- DLTA
 ------------------------------------------------------------------------------

 Writing checkpoint file wannier90.chk... done

 Cycle:   4300
  WF centre and spread    1  ( -0.000000,  0.000000,  3.157321 )    13.14482858
  WF centre and spread    2  (  0.000000, -0.000000, -3.157321 )    13.14482858
  Sum of centres and spreads ( -0.000000, -0.000000, -0.000000 )    26.28965716

   4300     0.355E-14     0.0000000002       26.2896571611      17.88  <-- CONV
        O_D=      0.3157255 O_OD=      0.0409700 O_TOT=     26.2896572 <-- SPRD
 Delta: O_D= -0.1221245E-14 O_OD=  0.1595946E-15 O_TOT=  0.3552714E-14 <-- DLTA
 ------------------------------------------------------------------------------

 Writing checkpoint file wannier90.chk... done

 Cycle:   4400
  WF centre and spread    1  ( -0.000000,  0.000000,  3.157321 )    13.14482858
  WF centre and spread    2  (  0.000000, -0.000000, -3.157321 )    13.14482858
  Sum of centres and spreads ( -0.000000, -0.000000, -0.000000 )    26.28965716

   4400     0.000E+00     0.0000000002       26.2896571611      18.24  <-- CONV
        O_D=      0.3157255 O_OD=      0.0409700 O_TOT=     26.2896572 <-- SPRD
 Delta: O_D= -0.5551115E-15 O_OD= -0.4163336E-16 O_TOT=  0.0000000E+00 <-- DLTA
 ------------------------------------------------------------------------------

 Writing checkpoint file wannier90.chk... done

 Cycle:   4500
  WF centre and spread    1  ( -0.000000,  0.000000,  3.157321 )    13.14482858
  WF centre and spread    2  (  0.000000, -0.000000, -3.157321 )    13.14482858
  Sum of centres and spreads ( -0.000000, -0.000000, -0.000000 )    26.28965716

   4500     0.000E+00     0.0000000002       26.2896571611      18.59  <-- CONV
        O_D=      0.3157255 O_OD=      0.0409700 O_TOT=     26.2896572 <-- SPRD
 Delta: O_D= -0.1276756E-14 O_OD=  0.4857226E-16 O_TOT=  0.0000000E+00 <-- DLTA
 ------------------------------------------------------------------------------

 Writing checkpoint file wannier90.chk... done

 Cycle:   4600
  WF centre and spread    1  ( -0.000000,  0.000000,  3.157321 )    13.14482858
  WF centre and spread    2  (  0.000000, -0.000000, -3.157321 )    13.14482858
  Sum of centres and spreads ( -0.000000, -0.000000, -0.000000 )    26.28965716

   4600     0.000E+00     0.0000000001       26.2896571611      18.94  <-- CONV
        O_D=      0.3157255 O_OD=      0.0409700 O_TOT=     26.2896572 <-- SPRD
 Delta: O_D= -0.1276756E-14 O_OD= -0.2220446E-15 O_TOT=  0.0000000E+00 <-- DLTA
 ------------------------------------------------------------------------------

 Writing checkpoint file wannier90.chk... done

 Cycle:   4700
  WF centre and spread    1  ( -0.000000,  0.000000,  3.157321 )    13.14482858
  WF centre and spread    2  (  0.000000, -0.000000, -3.157321 )    13.14482858
  Sum of centres and spreads ( -0.000000, -0.000000, -0.000000 )    26.28965716

   4700     0.000E+00     0.0000000001       26.2896571611      19.30  <-- CONV
        O_D=      0.3157255 O_OD=      0.0409700 O_TOT=     26.2896572 <-- SPRD
 Delta: O_D= -0.5551115E-15 O_OD=  0.1387779E-16 O_TOT=  0.0000000E+00 <-- DLTA
 ------------------------------------------------------------------------------

 Writing checkpoint file wannier90.chk... done

 Cycle:   4800
  WF centre and spread    1  ( -0.000000,  0.000000,  3.157321 )    13.14482858
  WF centre and spread    2  (  0.000000, -0.000000, -3.157321 )    13.14482858
  Sum of centres and spreads ( -0.000000, -0.000000, -0.000000 )    26.28965716

   4800     0.000E+00     0.0000000001       26.2896571611      19.65  <-- CONV
        O_D=      0.3157255 O_OD=      0.0409700 O_TOT=     26.2896572 <-- SPRD
 Delta: O_D=  0.8326673E-15 O_OD= -0.4163336E-16 O_TOT=  0.0000000E+00 <-- DLTA
 ------------------------------------------------------------------------------

 Writing checkpoint file wannier90.chk... done

 Cycle:   4900
  WF centre and spread    1  ( -0.000000,  0.000000,  3.157321 )    13.14482858
  WF centre and spread    2  (  0.000000, -0.000000, -3.157321 )    13.14482858
  Sum of centres and spreads ( -0.000000, -0.000000, -0.000000 )    26.28965716

   4900     0.000E+00     0.0000000001       26.2896571611      20.00  <-- CONV
        O_D=      0.3157255 O_OD=      0.0409700 O_TOT=     26.2896572 <-- SPRD
 Delta: O_D= -0.5551115E-16 O_OD= -0.1665335E-15 O_TOT=  0.0000000E+00 <-- DLTA
 ------------------------------------------------------------------------------

 Writing checkpoint file wannier90.chk... done

 Cycle:   5000
  WF centre and spread    1  ( -0.000000,  0.000000,  3.157321 )    13.14482858
  WF centre and spread    2  (  0.000000, -0.000000, -3.157321 )    13.14482858
  Sum of centres and spreads ( -0.000000, -0.000000, -0.000000 )    26.28965716

   5000     0.000E+00     0.0000000001       26.2896571611      20.35  <-- CONV
        O_D=      0.3157255 O_OD=      0.0409700 O_TOT=     26.2896572 <-- SPRD
 Delta: O_D= -0.3330669E-15 O_OD= -0.6938894E-17 O_TOT=  0.0000000E+00 <-- DLTA
 ------------------------------------------------------------------------------

 Writing checkpoint file wannier90.chk... done

 Cycle:   5100
  WF centre and spread    1  ( -0.000000,  0.000000,  3.157321 )    13.14482858
  WF centre and spread    2  (  0.000000, -0.000000, -3.157321 )    13.14482858
  Sum of centres and spreads ( -0.000000, -0.000000, -0.000000 )    26.28965716

   5100     0.355E-14     0.0000000001       26.2896571611      20.70  <-- CONV
        O_D=      0.3157255 O_OD=      0.0409700 O_TOT=     26.2896572 <-- SPRD
 Delta: O_D=  0.5551115E-15 O_OD= -0.2775558E-16 O_TOT=  0.3552714E-14 <-- DLTA
 ------------------------------------------------------------------------------

 Writing checkpoint file wannier90.chk... done

 Cycle:   5200
  WF centre and spread    1  ( -0.000000,  0.000000,  3.157321 )    13.14482858
  WF centre and spread    2  (  0.000000, -0.000000, -3.157321 )    13.14482858
  Sum of centres and spreads ( -0.000000, -0.000000, -0.000000 )    26.28965716

   5200     0.000E+00     0.0000000001       26.2896571611      21.05  <-- CONV
        O_D=      0.3157255 O_OD=      0.0409700 O_TOT=     26.2896572 <-- SPRD
 Delta: O_D=  0.1110223E-14 O_OD= -0.1387779E-16 O_TOT=  0.0000000E+00 <-- DLTA
 ------------------------------------------------------------------------------

 Writing checkpoint file wannier90.chk... done

 Cycle:   5300
  WF centre and spread    1  ( -0.000000,  0.000000,  3.157321 )    13.14482858
  WF centre and spread    2  (  0.000000, -0.000000, -3.157321 )    13.14482858
  Sum of centres and spreads ( -0.000000, -0.000000, -0.000000 )    26.28965716

   5300     0.000E+00     0.0000000001       26.2896571611      21.41  <-- CONV
        O_D=      0.3157255 O_OD=      0.0409700 O_TOT=     26.2896572 <-- SPRD
 Delta: O_D=  0.2220446E-15 O_OD=  0.3469447E-16 O_TOT=  0.0000000E+00 <-- DLTA
 ------------------------------------------------------------------------------

 Writing checkpoint file wannier90.chk... done

 Cycle:   5400
  WF centre and spread    1  ( -0.000000,  0.000000,  3.157321 )    13.14482858
  WF centre and spread    2  (  0.000000, -0.000000, -3.157321 )    13.14482858
  Sum of centres and spreads ( -0.000000, -0.000000, -0.000000 )    26.28965716

   5400     0.000E+00     0.0000000001       26.2896571611      21.76  <-- CONV
        O_D=      0.3157255 O_OD=      0.0409700 O_TOT=     26.2896572 <-- SPRD
 Delta: O_D=  0.0000000E+00 O_OD= -0.3469447E-16 O_TOT=  0.0000000E+00 <-- DLTA
 ------------------------------------------------------------------------------

 Writing checkpoint file wannier90.chk... done

 Cycle:   5500
  WF centre and spread    1  ( -0.000000,  0.000000,  3.157321 )    13.14482858
  WF centre and spread    2  (  0.000000, -0.000000, -3.157321 )    13.14482858
  Sum of centres and spreads ( -0.000000, -0.000000, -0.000000 )    26.28965716

   5500     0.000E+00     0.0000000001       26.2896571611      22.11  <-- CONV
        O_D=      0.3157255 O_OD=      0.0409700 O_TOT=     26.2896572 <-- SPRD
 Delta: O_D=  0.6106227E-15 O_OD= -0.4857226E-16 O_TOT=  0.0000000E+00 <-- DLTA
 ------------------------------------------------------------------------------

 Writing checkpoint file wannier90.chk... done

 Cycle:   5600
  WF centre and spread    1  ( -0.000000,  0.000000,  3.157321 )    13.14482858
  WF centre and spread    2  (  0.000000, -0.000000, -3.157321 )    13.14482858
  Sum of centres and spreads ( -0.000000, -0.000000, -0.000000 )    26.28965716

   5600     0.000E+00     0.0000000001       26.2896571611      22.46  <-- CONV
        O_D=      0.3157255 O_OD=      0.0409700 O_TOT=     26.2896572 <-- SPRD
 Delta: O_D= -0.2775558E-15 O_OD=  0.4163336E-16 O_TOT=  0.0000000E+00 <-- DLTA
 ------------------------------------------------------------------------------

 Writing checkpoint file wannier90.chk... done

 Cycle:   5700
  WF centre and spread    1  ( -0.000000,  0.000000,  3.157321 )    13.14482858
  WF centre and spread    2  (  0.000000, -0.000000, -3.157321 )    13.14482858
  Sum of centres and spreads ( -0.000000, -0.000000, -0.000000 )    26.28965716

   5700     0.000E+00     0.0000000001       26.2896571611      22.81  <-- CONV
        O_D=      0.3157255 O_OD=      0.0409700 O_TOT=     26.2896572 <-- SPRD
 Delta: O_D= -0.4996004E-15 O_OD=  0.6938894E-17 O_TOT=  0.0000000E+00 <-- DLTA
 ------------------------------------------------------------------------------

 Writing checkpoint file wannier90.chk... done

 Cycle:   5800
  WF centre and spread    1  ( -0.000000,  0.000000,  3.157321 )    13.14482858
  WF centre and spread    2  (  0.000000, -0.000000, -3.157321 )    13.14482858
  Sum of centres and spreads ( -0.000000, -0.000000, -0.000000 )    26.28965716

   5800     0.355E-14     0.0000000000       26.2896571611      23.17  <-- CONV
        O_D=      0.3157255 O_OD=      0.0409700 O_TOT=     26.2896572 <-- SPRD
 Delta: O_D=  0.2775558E-15 O_OD=  0.1318390E-15 O_TOT=  0.3552714E-14 <-- DLTA
 ------------------------------------------------------------------------------

 Writing checkpoint file wannier90.chk... done

 Cycle:   5900
  WF centre and spread    1  ( -0.000000,  0.000000,  3.157321 )    13.14482858
  WF centre and spread    2  (  0.000000, -0.000000, -3.157321 )    13.14482858
  Sum of centres and spreads ( -0.000000, -0.000000, -0.000000 )    26.28965716

   5900     0.000E+00     0.0000000000       26.2896571611      23.52  <-- CONV
        O_D=      0.3157255 O_OD=      0.0409700 O_TOT=     26.2896572 <-- SPRD
 Delta: O_D= -0.4440892E-15 O_OD= -0.4857226E-16 O_TOT=  0.0000000E+00 <-- DLTA
 ------------------------------------------------------------------------------

 Writing checkpoint file wannier90.chk... done

 Cycle:   6000
  WF centre and spread    1  ( -0.000000,  0.000000,  3.157321 )    13.14482858
  WF centre and spread    2  (  0.000000, -0.000000, -3.157321 )    13.14482858
  Sum of centres and spreads ( -0.000000, -0.000000, -0.000000 )    26.28965716

   6000     0.000E+00     0.0000000000       26.2896571611      23.87  <-- CONV
        O_D=      0.3157255 O_OD=      0.0409700 O_TOT=     26.2896572 <-- SPRD
 Delta: O_D= -0.1221245E-14 O_OD= -0.1040834E-15 O_TOT=  0.0000000E+00 <-- DLTA
 ------------------------------------------------------------------------------

 Writing checkpoint file wannier90.chk... done

 Cycle:   6100
  WF centre and spread    1  ( -0.000000,  0.000000,  3.157321 )    13.14482858
  WF centre and spread    2  (  0.000000, -0.000000, -3.157321 )    13.14482858
  Sum of centres and spreads ( -0.000000, -0.000000, -0.000000 )    26.28965716

   6100     0.000E+00     0.0000000000       26.2896571611      24.22  <-- CONV
        O_D=      0.3157255 O_OD=      0.0409700 O_TOT=     26.2896572 <-- SPRD
 Delta: O_D=  0.3330669E-15 O_OD= -0.4163336E-16 O_TOT=  0.0000000E+00 <-- DLTA
 ------------------------------------------------------------------------------

 Writing checkpoint file wannier90.chk... done

 Cycle:   6200
  WF centre and spread    1  ( -0.000000,  0.000000,  3.157321 )    13.14482858
  WF centre and spread    2  (  0.000000, -0.000000, -3.157321 )    13.14482858
  Sum of centres and spreads ( -0.000000, -0.000000, -0.000000 )    26.28965716

   6200     0.000E+00     0.0000000000       26.2896571611      24.57  <-- CONV
        O_D=      0.3157255 O_OD=      0.0409700 O_TOT=     26.2896572 <-- SPRD
 Delta: O_D= -0.1110223E-14 O_OD=  0.7632783E-16 O_TOT=  0.0000000E+00 <-- DLTA
 ------------------------------------------------------------------------------

 Writing checkpoint file wannier90.chk... done

 Cycle:   6300
  WF centre and spread    1  ( -0.000000,  0.000000,  3.157321 )    13.14482858
  WF centre and spread    2  (  0.000000, -0.000000, -3.157321 )    13.14482858
  Sum of centres and spreads ( -0.000000, -0.000000, -0.000000 )    26.28965716

   6300     0.355E-14     0.0000000000       26.2896571611      24.92  <-- CONV
        O_D=      0.3157255 O_OD=      0.0409700 O_TOT=     26.2896572 <-- SPRD
 Delta: O_D=  0.6661338E-15 O_OD=  0.5551115E-16 O_TOT=  0.3552714E-14 <-- DLTA
 ------------------------------------------------------------------------------

 Writing checkpoint file wannier90.chk... done

 Cycle:   6400
  WF centre and spread    1  ( -0.000000,  0.000000,  3.157321 )    13.14482858
  WF centre and spread    2  (  0.000000, -0.000000, -3.157321 )    13.14482858
  Sum of centres and spreads ( -0.000000, -0.000000, -0.000000 )    26.28965716

   6400     0.000E+00     0.0000000000       26.2896571611      25.27  <-- CONV
        O_D=      0.3157255 O_OD=      0.0409700 O_TOT=     26.2896572 <-- SPRD
 Delta: O_D=  0.2775558E-15 O_OD= -0.2081668E-16 O_TOT=  0.0000000E+00 <-- DLTA
 ------------------------------------------------------------------------------

 Writing checkpoint file wannier90.chk... done

 Cycle:   6500
  WF centre and spread    1  ( -0.000000,  0.000000,  3.157321 )    13.14482858
  WF centre and spread    2  (  0.000000, -0.000000, -3.157321 )    13.14482858
  Sum of centres and spreads ( -0.000000, -0.000000, -0.000000 )    26.28965716

   6500     0.000E+00     0.0000000000       26.2896571611      25.62  <-- CONV
        O_D=      0.3157255 O_OD=      0.0409700 O_TOT=     26.2896572 <-- SPRD
 Delta: O_D= -0.2775558E-15 O_OD= -0.1387779E-16 O_TOT=  0.0000000E+00 <-- DLTA
 ------------------------------------------------------------------------------

 Writing checkpoint file wannier90.chk... done

 Cycle:   6600
  WF centre and spread    1  ( -0.000000,  0.000000,  3.157321 )    13.14482858
  WF centre and spread    2  (  0.000000, -0.000000, -3.157321 )    13.14482858
  Sum of centres and spreads ( -0.000000, -0.000000, -0.000000 )    26.28965716

   6600     0.000E+00     0.0000000000       26.2896571611      25.97  <-- CONV
        O_D=      0.3157255 O_OD=      0.0409700 O_TOT=     26.2896572 <-- SPRD
 Delta: O_D= -0.2775558E-15 O_OD=  0.9020562E-16 O_TOT=  0.0000000E+00 <-- DLTA
 ------------------------------------------------------------------------------

 Writing checkpoint file wannier90.chk... done

 Cycle:   6700
  WF centre and spread    1  ( -0.000000,  0.000000,  3.157321 )    13.14482858
  WF centre and spread    2  (  0.000000, -0.000000, -3.157321 )    13.14482858
  Sum of centres and spreads ( -0.000000, -0.000000, -0.000000 )    26.28965716

   6700     0.000E+00     0.0000000000       26.2896571611      26.33  <-- CONV
        O_D=      0.3157255 O_OD=      0.0409700 O_TOT=     26.2896572 <-- SPRD
 Delta: O_D=  0.0000000E+00 O_OD= -0.6245005E-16 O_TOT=  0.0000000E+00 <-- DLTA
 ------------------------------------------------------------------------------

 Writing checkpoint file wannier90.chk... done

 Cycle:   6800
  WF centre and spread    1  ( -0.000000,  0.000000,  3.157321 )    13.14482858
  WF centre and spread    2  (  0.000000, -0.000000, -3.157321 )    13.14482858
  Sum of centres and spreads ( -0.000000, -0.000000, -0.000000 )    26.28965716

   6800     0.000E+00     0.0000000000       26.2896571611      26.68  <-- CONV
        O_D=      0.3157255 O_OD=      0.0409700 O_TOT=     26.2896572 <-- SPRD
 Delta: O_D=  0.4440892E-15 O_OD=  0.8326673E-16 O_TOT=  0.0000000E+00 <-- DLTA
 ------------------------------------------------------------------------------

 Writing checkpoint file wannier90.chk... done

 Cycle:   6900
  WF centre and spread    1  ( -0.000000,  0.000000,  3.157321 )    13.14482858
  WF centre and spread    2  (  0.000000, -0.000000, -3.157321 )    13.14482858
  Sum of centres and spreads ( -0.000000, -0.000000, -0.000000 )    26.28965716

   6900    -0.355E-14     0.0000000000       26.2896571611      27.03  <-- CONV
        O_D=      0.3157255 O_OD=      0.0409700 O_TOT=     26.2896572 <-- SPRD
 Delta: O_D= -0.5551115E-16 O_OD=  0.2081668E-16 O_TOT= -0.3552714E-14 <-- DLTA
 ------------------------------------------------------------------------------

 Writing checkpoint file wannier90.chk... done

 Cycle:   7000
  WF centre and spread    1  ( -0.000000,  0.000000,  3.157321 )    13.14482858
  WF centre and spread    2  (  0.000000, -0.000000, -3.157321 )    13.14482858
  Sum of centres and spreads ( -0.000000, -0.000000, -0.000000 )    26.28965716

   7000     0.000E+00     0.0000000000       26.2896571611      27.38  <-- CONV
        O_D=      0.3157255 O_OD=      0.0409700 O_TOT=     26.2896572 <-- SPRD
 Delta: O_D= -0.2220446E-15 O_OD=  0.2081668E-16 O_TOT=  0.0000000E+00 <-- DLTA
 ------------------------------------------------------------------------------

 Writing checkpoint file wannier90.chk... done

 Cycle:   7100
  WF centre and spread    1  ( -0.000000,  0.000000,  3.157321 )    13.14482858
  WF centre and spread    2  (  0.000000, -0.000000, -3.157321 )    13.14482858
  Sum of centres and spreads ( -0.000000, -0.000000, -0.000000 )    26.28965716

   7100     0.000E+00     0.0000000000       26.2896571611      27.73  <-- CONV
        O_D=      0.3157255 O_OD=      0.0409700 O_TOT=     26.2896572 <-- SPRD
 Delta: O_D= -0.2775558E-15 O_OD= -0.5551115E-16 O_TOT=  0.0000000E+00 <-- DLTA
 ------------------------------------------------------------------------------

 Writing checkpoint file wannier90.chk... done

 Cycle:   7200
  WF centre and spread    1  ( -0.000000,  0.000000,  3.157321 )    13.14482858
  WF centre and spread    2  (  0.000000, -0.000000, -3.157321 )    13.14482858
  Sum of centres and spreads ( -0.000000, -0.000000, -0.000000 )    26.28965716

[...]
  Sum of centres and spreads ( -0.000000, -0.000000, -0.000000 )    26.28965716

   7200     0.000E+00     0.0000000000       26.2896571611      16.69  <-- CONV
        O_D=      0.3157255 O_OD=      0.0409700 O_TOT=     26.2896572 <-- SPRD
 Delta: O_D= -0.1110223E-15 O_OD= -0.2775558E-16 O_TOT=  0.0000000E+00 <-- DLTA
 ------------------------------------------------------------------------------

 Writing checkpoint file wannier90.chk... done

 Cycle:   7300
  WF centre and spread    1  ( -0.000000,  0.000000,  3.157321 )    13.14482858
  WF centre and spread    2  (  0.000000, -0.000000, -3.157321 )    13.14482858
  Sum of centres and spreads ( -0.000000, -0.000000, -0.000000 )    26.28965716

   7300     0.355E-14     0.0000000000       26.2896571611      16.90  <-- CONV
        O_D=      0.3157255 O_OD=      0.0409700 O_TOT=     26.2896572 <-- SPRD
 Delta: O_D=  0.1665335E-15 O_OD=  0.6938894E-16 O_TOT=  0.3552714E-14 <-- DLTA
 ------------------------------------------------------------------------------

 Writing checkpoint file wannier90.chk... done

 Cycle:   7400
  WF centre and spread    1  ( -0.000000,  0.000000,  3.157321 )    13.14482858
  WF centre and spread    2  (  0.000000, -0.000000, -3.157321 )    13.14482858
  Sum of centres and spreads ( -0.000000, -0.000000, -0.000000 )    26.28965716

   7400     0.000E+00     0.0000000000       26.2896571611      17.10  <-- CONV
        O_D=      0.3157255 O_OD=      0.0409700 O_TOT=     26.2896572 <-- SPRD
 Delta: O_D= -0.1110223E-15 O_OD= -0.1110223E-15 O_TOT=  0.0000000E+00 <-- DLTA
 ------------------------------------------------------------------------------

 Writing checkpoint file wannier90.chk... done

 Cycle:   7500
  WF centre and spread    1  ( -0.000000,  0.000000,  3.157321 )    13.14482858
  WF centre and spread    2  (  0.000000, -0.000000, -3.157321 )    13.14482858
  Sum of centres and spreads ( -0.000000, -0.000000, -0.000000 )    26.28965716

   7500     0.355E-14     0.0000000000       26.2896571611      17.31  <-- CONV
        O_D=      0.3157255 O_OD=      0.0409700 O_TOT=     26.2896572 <-- SPRD
 Delta: O_D=  0.6106227E-15 O_OD= -0.1387779E-16 O_TOT=  0.3552714E-14 <-- DLTA
 ------------------------------------------------------------------------------

 Writing checkpoint file wannier90.chk... done

 Cycle:   7600
  WF centre and spread    1  ( -0.000000,  0.000000,  3.157321 )    13.14482858
  WF centre and spread    2  (  0.000000, -0.000000, -3.157321 )    13.14482858
  Sum of centres and spreads ( -0.000000, -0.000000, -0.000000 )    26.28965716

   7600     0.000E+00     0.0000000000       26.2896571611      17.51  <-- CONV
        O_D=      0.3157255 O_OD=      0.0409700 O_TOT=     26.2896572 <-- SPRD
 Delta: O_D=  0.2220446E-15 O_OD= -0.1387779E-16 O_TOT=  0.0000000E+00 <-- DLTA
 ------------------------------------------------------------------------------

 Writing checkpoint file wannier90.chk... done

 Cycle:   7700
  WF centre and spread    1  ( -0.000000,  0.000000,  3.157321 )    13.14482858
  WF centre and spread    2  (  0.000000, -0.000000, -3.157321 )    13.14482858
  Sum of centres and spreads ( -0.000000, -0.000000, -0.000000 )    26.28965716

   7700     0.000E+00     0.0000000000       26.2896571611      17.72  <-- CONV
        O_D=      0.3157255 O_OD=      0.0409700 O_TOT=     26.2896572 <-- SPRD
 Delta: O_D=  0.3330669E-15 O_OD=  0.6938894E-17 O_TOT=  0.0000000E+00 <-- DLTA
 ------------------------------------------------------------------------------

 Writing checkpoint file wannier90.chk... done

 Cycle:   7800
  WF centre and spread    1  ( -0.000000,  0.000000,  3.157321 )    13.14482858
  WF centre and spread    2  (  0.000000, -0.000000, -3.157321 )    13.14482858
  Sum of centres and spreads ( -0.000000, -0.000000, -0.000000 )    26.28965716

   7800     0.000E+00     0.0000000000       26.2896571611      17.92  <-- CONV
        O_D=      0.3157255 O_OD=      0.0409700 O_TOT=     26.2896572 <-- SPRD
 Delta: O_D= -0.2775558E-15 O_OD= -0.2081668E-16 O_TOT=  0.0000000E+00 <-- DLTA
 ------------------------------------------------------------------------------

 Writing checkpoint file wannier90.chk... done

 Cycle:   7900
  WF centre and spread    1  ( -0.000000,  0.000000,  3.157321 )    13.14482858
  WF centre and spread    2  (  0.000000, -0.000000, -3.157321 )    13.14482858
  Sum of centres and spreads ( -0.000000, -0.000000, -0.000000 )    26.28965716

   7900     0.000E+00     0.0000000000       26.2896571611      18.13  <-- CONV
        O_D=      0.3157255 O_OD=      0.0409700 O_TOT=     26.2896572 <-- SPRD
 Delta: O_D= -0.5551115E-16 O_OD=  0.0000000E+00 O_TOT=  0.0000000E+00 <-- DLTA
 ------------------------------------------------------------------------------

 Writing checkpoint file wannier90.chk... done

 Cycle:   8000
  WF centre and spread    1  ( -0.000000,  0.000000,  3.157321 )    13.14482858
  WF centre and spread    2  (  0.000000, -0.000000, -3.157321 )    13.14482858
  Sum of centres and spreads ( -0.000000, -0.000000, -0.000000 )    26.28965716

   8000     0.000E+00     0.0000000000       26.2896571611      18.33  <-- CONV
        O_D=      0.3157255 O_OD=      0.0409700 O_TOT=     26.2896572 <-- SPRD
 Delta: O_D= -0.1110223E-15 O_OD= -0.6938894E-17 O_TOT=  0.0000000E+00 <-- DLTA
 ------------------------------------------------------------------------------

 Writing checkpoint file wannier90.chk... done

 Cycle:   8100
  WF centre and spread    1  ( -0.000000,  0.000000,  3.157321 )    13.14482858
  WF centre and spread    2  (  0.000000, -0.000000, -3.157321 )    13.14482858
  Sum of centres and spreads ( -0.000000, -0.000000, -0.000000 )    26.28965716

   8100     0.000E+00     0.0000000000       26.2896571611      18.54  <-- CONV
        O_D=      0.3157255 O_OD=      0.0409700 O_TOT=     26.2896572 <-- SPRD
 Delta: O_D=  0.1110223E-15 O_OD= -0.4163336E-16 O_TOT=  0.0000000E+00 <-- DLTA
 ------------------------------------------------------------------------------

 Writing checkpoint file wannier90.chk... done

 Cycle:   8200
  WF centre and spread    1  ( -0.000000,  0.000000,  3.157321 )    13.14482858
  WF centre and spread    2  (  0.000000, -0.000000, -3.157321 )    13.14482858
  Sum of centres and spreads ( -0.000000, -0.000000, -0.000000 )    26.28965716

   8200     0.000E+00     0.0000000000       26.2896571611      18.74  <-- CONV
        O_D=      0.3157255 O_OD=      0.0409700 O_TOT=     26.2896572 <-- SPRD
 Delta: O_D= -0.1665335E-15 O_OD=  0.4857226E-16 O_TOT=  0.0000000E+00 <-- DLTA
 ------------------------------------------------------------------------------

 Writing checkpoint file wannier90.chk... done

 Cycle:   8300
  WF centre and spread    1  ( -0.000000,  0.000000,  3.157321 )    13.14482858
  WF centre and spread    2  (  0.000000, -0.000000, -3.157321 )    13.14482858
  Sum of centres and spreads ( -0.000000, -0.000000, -0.000000 )    26.28965716

   8300     0.000E+00     0.0000000000       26.2896571611      18.95  <-- CONV
        O_D=      0.3157255 O_OD=      0.0409700 O_TOT=     26.2896572 <-- SPRD
 Delta: O_D=  0.2220446E-15 O_OD= -0.2081668E-16 O_TOT=  0.0000000E+00 <-- DLTA
 ------------------------------------------------------------------------------

 Writing checkpoint file wannier90.chk... done

 Cycle:   8400
  WF centre and spread    1  ( -0.000000,  0.000000,  3.157321 )    13.14482858
  WF centre and spread    2  (  0.000000, -0.000000, -3.157321 )    13.14482858
  Sum of centres and spreads ( -0.000000, -0.000000, -0.000000 )    26.28965716

   8400     0.000E+00     0.0000000000       26.2896571611      19.15  <-- CONV
        O_D=      0.3157255 O_OD=      0.0409700 O_TOT=     26.2896572 <-- SPRD
 Delta: O_D= -0.1665335E-15 O_OD=  0.5551115E-16 O_TOT=  0.0000000E+00 <-- DLTA
 ------------------------------------------------------------------------------

 Writing checkpoint file wannier90.chk... done

 Cycle:   8500
  WF centre and spread    1  ( -0.000000,  0.000000,  3.157321 )    13.14482858
  WF centre and spread    2  (  0.000000, -0.000000, -3.157321 )    13.14482858
  Sum of centres and spreads ( -0.000000, -0.000000, -0.000000 )    26.28965716

   8500     0.000E+00     0.0000000000       26.2896571611      19.36  <-- CONV
        O_D=      0.3157255 O_OD=      0.0409700 O_TOT=     26.2896572 <-- SPRD
 Delta: O_D= -0.3330669E-15 O_OD= -0.4163336E-16 O_TOT=  0.0000000E+00 <-- DLTA
 ------------------------------------------------------------------------------

 Writing checkpoint file wannier90.chk... done

 Cycle:   8600
  WF centre and spread    1  ( -0.000000,  0.000000,  3.157321 )    13.14482858
  WF centre and spread    2  (  0.000000, -0.000000, -3.157321 )    13.14482858
  Sum of centres and spreads ( -0.000000, -0.000000, -0.000000 )    26.28965716

   8600     0.000E+00     0.0000000000       26.2896571611      19.56  <-- CONV
        O_D=      0.3157255 O_OD=      0.0409700 O_TOT=     26.2896572 <-- SPRD
 Delta: O_D= -0.1110223E-15 O_OD= -0.4163336E-16 O_TOT=  0.0000000E+00 <-- DLTA
 ------------------------------------------------------------------------------

 Writing checkpoint file wannier90.chk... done

 Cycle:   8700
  WF centre and spread    1  ( -0.000000,  0.000000,  3.157321 )    13.14482858
  WF centre and spread    2  (  0.000000, -0.000000, -3.157321 )    13.14482858
  Sum of centres and spreads ( -0.000000, -0.000000, -0.000000 )    26.28965716

   8700     0.000E+00     0.0000000000       26.2896571611      19.77  <-- CONV
        O_D=      0.3157255 O_OD=      0.0409700 O_TOT=     26.2896572 <-- SPRD
 Delta: O_D= -0.5551115E-16 O_OD= -0.2775558E-16 O_TOT=  0.0000000E+00 <-- DLTA
 ------------------------------------------------------------------------------

 Writing checkpoint file wannier90.chk... done

 Cycle:   8800
  WF centre and spread    1  ( -0.000000,  0.000000,  3.157321 )    13.14482858
  WF centre and spread    2  (  0.000000, -0.000000, -3.157321 )    13.14482858
  Sum of centres and spreads ( -0.000000, -0.000000, -0.000000 )    26.28965716

   8800     0.000E+00     0.0000000000       26.2896571611      19.97  <-- CONV
        O_D=      0.3157255 O_OD=      0.0409700 O_TOT=     26.2896572 <-- SPRD
 Delta: O_D=  0.1110223E-15 O_OD= -0.8326673E-16 O_TOT=  0.0000000E+00 <-- DLTA
 ------------------------------------------------------------------------------

 Writing checkpoint file wannier90.chk... done

 Cycle:   8900
  WF centre and spread    1  ( -0.000000,  0.000000,  3.157321 )    13.14482858
  WF centre and spread    2  (  0.000000, -0.000000, -3.157321 )    13.14482858
  Sum of centres and spreads ( -0.000000, -0.000000, -0.000000 )    26.28965716

   8900     0.000E+00     0.0000000000       26.2896571611      20.18  <-- CONV
        O_D=      0.3157255 O_OD=      0.0409700 O_TOT=     26.2896572 <-- SPRD
 Delta: O_D= -0.4440892E-15 O_OD= -0.2081668E-16 O_TOT=  0.0000000E+00 <-- DLTA
 ------------------------------------------------------------------------------

 Writing checkpoint file wannier90.chk... done

 Cycle:   9000
  WF centre and spread    1  ( -0.000000,  0.000000,  3.157321 )    13.14482858
  WF centre and spread    2  (  0.000000, -0.000000, -3.157321 )    13.14482858
  Sum of centres and spreads ( -0.000000, -0.000000, -0.000000 )    26.28965716

   9000     0.000E+00     0.0000000000       26.2896571611      20.38  <-- CONV
        O_D=      0.3157255 O_OD=      0.0409700 O_TOT=     26.2896572 <-- SPRD
 Delta: O_D=  0.3330669E-15 O_OD=  0.4857226E-16 O_TOT=  0.0000000E+00 <-- DLTA
 ------------------------------------------------------------------------------

 Writing checkpoint file wannier90.chk... done

 Cycle:   9100
  WF centre and spread    1  ( -0.000000,  0.000000,  3.157321 )    13.14482858
  WF centre and spread    2  (  0.000000, -0.000000, -3.157321 )    13.14482858
  Sum of centres and spreads ( -0.000000, -0.000000, -0.000000 )    26.28965716

   9100     0.000E+00     0.0000000000       26.2896571611      20.58  <-- CONV
        O_D=      0.3157255 O_OD=      0.0409700 O_TOT=     26.2896572 <-- SPRD
 Delta: O_D=  0.5551115E-16 O_OD=  0.4163336E-16 O_TOT=  0.0000000E+00 <-- DLTA
 ------------------------------------------------------------------------------

 Writing checkpoint file wannier90.chk... done

 Cycle:   9200
  WF centre and spread    1  ( -0.000000,  0.000000,  3.157321 )    13.14482858
  WF centre and spread    2  (  0.000000, -0.000000, -3.157321 )    13.14482858
  Sum of centres and spreads ( -0.000000, -0.000000, -0.000000 )    26.28965716

   9200     0.000E+00     0.0000000000       26.2896571611      20.79  <-- CONV
        O_D=      0.3157255 O_OD=      0.0409700 O_TOT=     26.2896572 <-- SPRD
 Delta: O_D= -0.1110223E-15 O_OD= -0.6938894E-17 O_TOT=  0.0000000E+00 <-- DLTA
 ------------------------------------------------------------------------------

 Writing checkpoint file wannier90.chk... done

 Cycle:   9300
  WF centre and spread    1  ( -0.000000,  0.000000,  3.157321 )    13.14482858
  WF centre and spread    2  (  0.000000, -0.000000, -3.157321 )    13.14482858
  Sum of centres and spreads ( -0.000000, -0.000000, -0.000000 )    26.28965716

   9300     0.000E+00     0.0000000000       26.2896571611      20.99  <-- CONV
        O_D=      0.3157255 O_OD=      0.0409700 O_TOT=     26.2896572 <-- SPRD
 Delta: O_D=  0.1665335E-15 O_OD=  0.0000000E+00 O_TOT=  0.0000000E+00 <-- DLTA
 ------------------------------------------------------------------------------

 Writing checkpoint file wannier90.chk... done

 Cycle:   9400
  WF centre and spread    1  ( -0.000000,  0.000000,  3.157321 )    13.14482858
  WF centre and spread    2  (  0.000000, -0.000000, -3.157321 )    13.14482858
  Sum of centres and spreads ( -0.000000, -0.000000, -0.000000 )    26.28965716

   9400     0.355E-14     0.0000000000       26.2896571611      21.20  <-- CONV
        O_D=      0.3157255 O_OD=      0.0409700 O_TOT=     26.2896572 <-- SPRD
 Delta: O_D=  0.1665335E-15 O_OD= -0.4857226E-16 O_TOT=  0.3552714E-14 <-- DLTA
 ------------------------------------------------------------------------------

 Writing checkpoint file wannier90.chk... done

 Cycle:   9500
  WF centre and spread    1  ( -0.000000,  0.000000,  3.157321 )    13.14482858
  WF centre and spread    2  (  0.000000, -0.000000, -3.157321 )    13.14482858
  Sum of centres and spreads ( -0.000000, -0.000000, -0.000000 )    26.28965716

   9500     0.000E+00     0.0000000000       26.2896571611      21.40  <-- CONV
        O_D=      0.3157255 O_OD=      0.0409700 O_TOT=     26.2896572 <-- SPRD
 Delta: O_D=  0.2775558E-15 O_OD=  0.6938894E-17 O_TOT=  0.0000000E+00 <-- DLTA
 ------------------------------------------------------------------------------

 Writing checkpoint file wannier90.chk... done

 Cycle:   9600
  WF centre and spread    1  ( -0.000000,  0.000000,  3.157321 )    13.14482858
  WF centre and spread    2  (  0.000000, -0.000000, -3.157321 )    13.14482858
  Sum of centres and spreads ( -0.000000, -0.000000, -0.000000 )    26.28965716

   9600     0.000E+00     0.0000000000       26.2896571611      21.61  <-- CONV
        O_D=      0.3157255 O_OD=      0.0409700 O_TOT=     26.2896572 <-- SPRD
 Delta: O_D= -0.5551115E-16 O_OD= -0.2081668E-16 O_TOT=  0.0000000E+00 <-- DLTA
 ------------------------------------------------------------------------------

 Writing checkpoint file wannier90.chk... done

 Cycle:   9700
  WF centre and spread    1  ( -0.000000,  0.000000,  3.157321 )    13.14482858
  WF centre and spread    2  (  0.000000, -0.000000, -3.157321 )    13.14482858
  Sum of centres and spreads ( -0.000000, -0.000000, -0.000000 )    26.28965716

   9700     0.000E+00     0.0000000000       26.2896571611      21.81  <-- CONV
        O_D=      0.3157255 O_OD=      0.0409700 O_TOT=     26.2896572 <-- SPRD
 Delta: O_D=  0.5551115E-16 O_OD=  0.6938894E-17 O_TOT=  0.0000000E+00 <-- DLTA
 ------------------------------------------------------------------------------

 Writing checkpoint file wannier90.chk... done

 Cycle:   9800
  WF centre and spread    1  ( -0.000000,  0.000000,  3.157321 )    13.14482858
  WF centre and spread    2  (  0.000000, -0.000000, -3.157321 )    13.14482858
  Sum of centres and spreads ( -0.000000, -0.000000, -0.000000 )    26.28965716

   9800     0.000E+00     0.0000000000       26.2896571611      22.02  <-- CONV
        O_D=      0.3157255 O_OD=      0.0409700 O_TOT=     26.2896572 <-- SPRD
 Delta: O_D=  0.0000000E+00 O_OD=  0.0000000E+00 O_TOT=  0.0000000E+00 <-- DLTA
 ------------------------------------------------------------------------------

 Writing checkpoint file wannier90.chk... done

 Cycle:   9900
  WF centre and spread    1  ( -0.000000,  0.000000,  3.157321 )    13.14482858
  WF centre and spread    2  (  0.000000, -0.000000, -3.157321 )    13.14482858
  Sum of centres and spreads ( -0.000000, -0.000000, -0.000000 )    26.28965716

   9900     0.000E+00     0.0000000000       26.2896571611      22.22  <-- CONV
        O_D=      0.3157255 O_OD=      0.0409700 O_TOT=     26.2896572 <-- SPRD
 Delta: O_D= -0.5551115E-16 O_OD=  0.1387779E-16 O_TOT=  0.0000000E+00 <-- DLTA
 ------------------------------------------------------------------------------

 Writing checkpoint file wannier90.chk... done

 Cycle:  10000
  WF centre and spread    1  ( -0.000000,  0.000000,  3.157321 )    13.14482858
  WF centre and spread    2  (  0.000000, -0.000000, -3.157321 )    13.14482858
  Sum of centres and spreads ( -0.000000, -0.000000, -0.000000 )    26.28965716

  10000     0.000E+00     0.0000000000       26.2896571611      22.43  <-- CONV
        O_D=      0.3157255 O_OD=      0.0409700 O_TOT=     26.2896572 <-- SPRD
 Delta: O_D=  0.0000000E+00 O_OD=  0.0000000E+00 O_TOT=  0.0000000E+00 <-- DLTA
 ------------------------------------------------------------------------------

 Writing checkpoint file wannier90.chk... done

 Final State
  WF centre and spread    1  ( -0.000000,  0.000000,  3.157321 )    13.14482858
  WF centre and spread    2  (  0.000000, -0.000000, -3.157321 )    13.14482858
  Sum of centres and spreads ( -0.000000, -0.000000, -0.000000 )    26.28965716

         Spreads (Ang^2)       Omega I      =    25.932961642
        ================       Omega D      =     0.315725489
                               Omega OD     =     0.040970030
    Final Spread (Ang^2)       Omega Total  =    26.289657161
 ------------------------------------------------------------------------------

 Writing checkpoint file wannier90.chk... done

 Time for wannierise           19.789 (sec)
 *---------------------------------------------------------------------------*
 |                               PLOTTING                                    |
 *---------------------------------------------------------------------------*


 Calculating interpolated band-structure

 Time to calculate interpolated band structure       0.037 (sec)

 Time for plotting              0.076 (sec)
 Total Execution Time          25.517 (sec)

 *===========================================================================*
 |                             TIMING INFORMATION                            |
 *===========================================================================*
 |    Tag                                                Ncalls      Time (s)|
 |---------------------------------------------------------------------------|
 |kmesh: get                                        :         2         0.177|
 |overlap: allocate                                 :         1         0.000|
 |dis: main                                         :         1         2.765|
 |wann: main                                        :         1        19.786|
 |plot: main                                        :         1         0.076|
 *---------------------------------------------------------------------------*

 All done: wannier90 exiting
