 
             +---------------------------------------------------+
             |                                                   |
             |                   WANNIER90                       |
             |                                                   |
             +---------------------------------------------------+
             |                                                   |
             |        Welcome to the Maximally-Localized         |
             |        Generalized Wannier Functions code         |
             |            http://www.wannier.org                 |
             |                                                   |
             |  Wannier90 Authors:                               |
             |    Arash A. Mostofi   (Imperial College London)   |
             |    Jonathan R. Yates  (University of Oxford)      |
             |    Young-Su Lee       (KIST, S. Korea)            |
             |                                                   |
             |  Wannier90 Contributors:                          |
             |    Matthew Shelley    (Imperial College London)   |
             |    Nicolas Poilvert   (MIT)                       |
             |                                                   |
             |  Wannier77 Authors:                               |
             |    Nicola Marzari     (University of Oxford)      |
             |    Ivo Souza          (UC Berkeley)               |
             |    David Vanderbilt   (Rutgers University)        |
             |                                                   |
             |  Please cite                                      |
             |                                                   |
             |  [ref] "Wannier90: A Tool for Obtaining Maximally |
             |         Localised Wannier Functions"              |
             |        A. A. Mostofi, J. R. Yates, Y.-S. Lee,     |
             |        I. Souza, D. Vanderbilt and N. Marzari     |
             |        Comput. Phys. Commun. 178, 685 (2008)      |
             |                                                   |
             |  in any publications arising from the use of      |
             |  this code. For the method please cite            |
             |                                                   |
             |  [ref] "Maximally Localized Generalised Wannier   |
             |         Functions for Composite Energy Bands"     |
             |         N. Marzari and D. Vanderbilt              |
             |         Phys. Rev. B 56 12847 (1997)              |
             |                                                   |
             |  [ref] "Maximally Localized Wannier Functions     |
             |         for Entangled Energy Bands"               |
             |         I. Souza, N. Marzari and D. Vanderbilt    |
             |         Phys. Rev. B 65 035109 (2001)             |
             |                                                   |
             |                                                   |
             | Copyright (c) 1996-2010                           |
             |        A. A. Mostofi, J. R. Yates, Y.-S. Lee,     |
             |        I. Souza, D. Vanderbilt and N. Marzari     |
             |                                                   |
             |        Release: 1.2        24th Jan 2010          |
             |                                                   |
             | This program is free software; you can            |
             | redistribute it and/or modify it under the terms  |
             | of the GNU General Public License as published by |
             | the Free Software Foundation; either version 2 of |
             | the License, or (at your option) any later version|
             |                                                   |
             | This program is distributed in the hope that it   |
             | will be useful, but WITHOUT ANY WARRANTY; without |
             | even the implied warranty of MERCHANTABILITY or   |
             | FITNESS FOR A PARTICULAR PURPOSE. See the GNU     |
             | General Public License for more details.          |
             |                                                   |
             | You should have received a copy of the GNU General|
             | Public License along with this program; if not,   |
             | write to the Free Software Foundation, Inc.,      |
             | 675 Mass Ave, Cambridge, MA 02139, USA.           |
             |                                                   |
             +---------------------------------------------------+
             |    Execution started on  4Nov2024 at 16:26:04     |
             +---------------------------------------------------+

 Wannier90 is running in LIBRARY MODE

 Setting up k-point neighbours...

 
                                    ------
                                    SYSTEM
                                    ------
 
                              Lattice Vectors (Ang)
                    a_1     0.000000  -4.061791   4.061791
                    a_2     4.061791   0.000000  -4.061791
                    a_3     7.037419   7.037419   2.975628
 
                   Unit Cell Volume:     281.30104  (Ang^3)
 
                        Reciprocal-Space Vectors (Ang^-1)
                    b_1     0.638468  -0.908432   0.638468
                    b_2     0.908432  -0.638468  -0.638468
                    b_3     0.368505   0.368505   0.368505
  
 *----------------------------------------------------------------------------*
 |   Site       Fractional Coordinate          Cartesian Coordinate (Ang)     |
 +----------------------------------------------------------------------------+
 | Nb   1   0.56554   0.43446   0.24979   |    3.52257  -0.53922   1.27566    |
 | Nb   2   0.56554   0.88128   0.24979   |    5.33745  -0.53922  -0.53922    |
 | Nb   3   0.11872   0.43446   0.24979   |    3.52257   1.27566  -0.53922    |
 | Nb   4   0.43446   0.56554   0.75021   |    7.57664   3.51485   1.69997    |
 | Nb   5   0.43446   0.11872   0.75021   |    5.76176   3.51485   3.51485    |
 | Nb   6   0.88128   0.56554   0.75021   |    7.57664   1.69997   3.51485    |
 | F    1   0.36319   0.63681   0.08956   |    3.21688  -0.84491  -0.84491    |
 | F    2   0.63681   0.36319   0.91044   |    7.88233   3.82053   3.82053    |
 | F    3   0.87596   0.12404   0.13103   |    1.42597  -2.63582   3.44403    |
 | F    4   0.87596   0.62088   0.13103   |    3.44403  -2.63582   1.42597    |
 | F    5   0.37912   0.12404   0.13103   |    1.42597  -0.61776   1.42597    |
 | F    6   0.12404   0.87596   0.86897   |    9.67324   5.61145  -0.46840    |
 | F    7   0.12404   0.37912   0.86897   |    7.65518   5.61145   1.54965    |
 | F    8   0.62088   0.87596   0.86897   |    9.67324   3.59339   1.54965    |
 | F    9   0.79171   0.20829   0.37512   |    3.48590  -0.57589   3.48590    |
 | F   10   0.20829   0.79171   0.62488   |    7.61331   3.55152  -0.51027    |
 | F   11   0.29362   0.70638   0.38687   |    5.59177   1.52998  -0.52536    |
 | F   12   0.29362   0.20036   0.38687   |    3.53643   1.52998   1.52998    |
 | F   13   0.79964   0.70638   0.38687   |    5.59177  -0.52536   1.52998    |
 | F   14   0.70638   0.29362   0.61313   |    5.50744   1.44565   3.50099    |
 | F   15   0.70638   0.79964   0.61313   |    7.56278   1.44565   1.44565    |
 | F   16   0.20036   0.29362   0.61313   |    5.50744   3.50099   1.44565    |
 *----------------------------------------------------------------------------*
  
                                ------------
                                K-POINT GRID
                                ------------
  
             Grid size =  7 x  7 x  7      Total points =  343
  
  
 *---------------------------------- MAIN ------------------------------------*
 |  Number of Wannier Functions               :               192             |
 |  Number of input Bloch states              :               192             |
 |  Output verbosity (1=low, 5=high)          :                 1             |
 |  Timing Level (1=low, 5=high)              :                 1             |
 |  Optimisation (0=memory, 3=speed)          :                 3             |
 |  Length Unit                               :               Ang             |
 |  Post-processing setup (write *.nnkp)      :                 F             |
 |  Using Gamma-only branch of algorithms     :                 F             |
 *----------------------------------------------------------------------------*
 *------------------------------- WANNIERISE ---------------------------------*
 |  Total number of iterations                :               100             |
 |  Number of CG steps before reset           :                 5             |
 |  Trial step length for line search         :             2.000             |
 |  Convergence tolerence                     :         0.100E-09             |
 |  Convergence window                        :                -1             |
 |  Iterations between writing output         :                 1             |
 |  Iterations between backing up to disk     :               100             |
 |  Write r^2_nm to file                      :                 F             |
 |  Write xyz WF centres to file              :                 F             |
 |  Use guiding centre to control phases      :                 F             |
 *----------------------------------------------------------------------------*
 Time to read parameters        0.001 (sec)

 *---------------------------------- K-MESH ----------------------------------*
 +----------------------------------------------------------------------------+
 |                    Distance to Nearest-Neighbour Shells                    |
 |                    ------------------------------------                    |
 |          Shell             Distance (Ang^-1)          Multiplicity         |
 |          -----             -----------------          ------------         |
 |             1                   0.091181                      2            |
 |             2                   0.182363                      2            |
 |             3                   0.182976                      6            |
 |             4                   0.190399                      6            |
 |             5                   0.217571                      6            |
 |             6                   0.235905                      6            |
 |             7                   0.273544                      2            |
 |             8                   0.278966                      6            |
 |             9                   0.302785                      6            |
 |            10                   0.312521                      6            |
 |            11                   0.325551                     12            |
 |            12                   0.353461                      6            |
 +----------------------------------------------------------------------------+
 | The b-vectors are chosen automatically                                     |
 | The following shells are used:   1,  3                                     |
 +----------------------------------------------------------------------------+
 |                        Shell   # Nearest-Neighbours                        |
 |                        -----   --------------------                        |
 |                          1               2                                 |
 |                          3               6                                 |
 +----------------------------------------------------------------------------+
 | Completeness relation is fully satisfied [Eq. (B1), PRB 56, 12847 (1997)]  |
 +----------------------------------------------------------------------------+
 |                  b_k Vectors (Ang^-1) and Weights (Ang^2)                  |
 |                  ----------------------------------------                  |
 |            No.         b_k(x)      b_k(y)      b_k(z)        w_b           |
 |            ---        --------------------------------     --------        |
 |             1         0.052644    0.052644    0.052644    56.726311        |
 |             2        -0.052644   -0.052644   -0.052644    56.726311        |
 |             3         0.091210   -0.129776    0.091210    10.238621        |
 |             4        -0.091210    0.129776   -0.091210    10.238621        |
 |             5        -0.129776    0.091210    0.091210    10.238621        |
 |             6         0.129776   -0.091210   -0.091210    10.238621        |
 |             7         0.091210    0.091210   -0.129776    10.238621        |
 |             8        -0.091210   -0.091210    0.129776    10.238621        |
 +----------------------------------------------------------------------------+
 |                           b_k Directions (Ang^-1)                          |
 |                           -----------------------                          |
 |            No.           x           y           z                         |
 |            ---        --------------------------------                     |
 |             1         0.052644    0.052644    0.052644                     |
 |             2         0.091210   -0.129776    0.091210                     |
 |             3        -0.129776    0.091210    0.091210                     |
 |             4         0.091210    0.091210   -0.129776                     |
 +----------------------------------------------------------------------------+
  
 Time to write kmesh            0.094 (sec)

 Finished setting up k-point neighbours.

 Returning to pw2wannier90 at 16:26:04 
 
             +---------------------------------------------------+
             |                                                   |
             |                   WANNIER90                       |
             |                                                   |
             +---------------------------------------------------+
             |                                                   |
             |        Welcome to the Maximally-Localized         |
             |        Generalized Wannier Functions code         |
             |            http://www.wannier.org                 |
             |                                                   |
             |  Wannier90 Authors:                               |
             |    Arash A. Mostofi   (Imperial College London)   |
             |    Jonathan R. Yates  (University of Oxford)      |
             |    Young-Su Lee       (KIST, S. Korea)            |
             |                                                   |
             |  Wannier90 Contributors:                          |
             |    Matthew Shelley    (Imperial College London)   |
             |    Nicolas Poilvert   (MIT)                       |
             |                                                   |
             |  Wannier77 Authors:                               |
             |    Nicola Marzari     (University of Oxford)      |
             |    Ivo Souza          (UC Berkeley)               |
             |    David Vanderbilt   (Rutgers University)        |
             |                                                   |
             |  Please cite                                      |
             |                                                   |
             |  [ref] "Wannier90: A Tool for Obtaining Maximally |
             |         Localised Wannier Functions"              |
             |        A. A. Mostofi, J. R. Yates, Y.-S. Lee,     |
             |        I. Souza, D. Vanderbilt and N. Marzari     |
             |        Comput. Phys. Commun. 178, 685 (2008)      |
             |                                                   |
             |  in any publications arising from the use of      |
             |  this code. For the method please cite            |
             |                                                   |
             |  [ref] "Maximally Localized Generalised Wannier   |
             |         Functions for Composite Energy Bands"     |
             |         N. Marzari and D. Vanderbilt              |
             |         Phys. Rev. B 56 12847 (1997)              |
             |                                                   |
             |  [ref] "Maximally Localized Wannier Functions     |
             |         for Entangled Energy Bands"               |
             |         I. Souza, N. Marzari and D. Vanderbilt    |
             |         Phys. Rev. B 65 035109 (2001)             |
             |                                                   |
             |                                                   |
             | Copyright (c) 1996-2010                           |
             |        A. A. Mostofi, J. R. Yates, Y.-S. Lee,     |
             |        I. Souza, D. Vanderbilt and N. Marzari     |
             |                                                   |
             |        Release: 1.2        24th Jan 2010          |
             |                                                   |
             | This program is free software; you can            |
             | redistribute it and/or modify it under the terms  |
             | of the GNU General Public License as published by |
             | the Free Software Foundation; either version 2 of |
             | the License, or (at your option) any later version|
             |                                                   |
             | This program is distributed in the hope that it   |
             | will be useful, but WITHOUT ANY WARRANTY; without |
             | even the implied warranty of MERCHANTABILITY or   |
             | FITNESS FOR A PARTICULAR PURPOSE. See the GNU     |
             | General Public License for more details.          |
             |                                                   |
             | You should have received a copy of the GNU General|
             | Public License along with this program; if not,   |
             | write to the Free Software Foundation, Inc.,      |
             | 675 Mass Ave, Cambridge, MA 02139, USA.           |
             |                                                   |
             +---------------------------------------------------+
             |    Execution started on  4Nov2024 at 16:48:04     |
             +---------------------------------------------------+

 Wannier90 is running in LIBRARY MODE

 Setting up k-point neighbours...

 Ignoring <mp_grid> in input file
 Ignoring <unit_cell_cart> in input file
 Ignoring <kpoints> in input file
 Ignoring <atoms_cart> in input file
 
                                    ------
                                    SYSTEM
                                    ------
 
                              Lattice Vectors (Ang)
                    a_1     0.000000  -4.061791   4.061791
                    a_2     4.061791   0.000000  -4.061791
                    a_3     7.037419   7.037419   2.975628
 
                   Unit Cell Volume:     281.30104  (Ang^3)
 
                        Reciprocal-Space Vectors (Ang^-1)
                    b_1     0.638468  -0.908432   0.638468
                    b_2     0.908432  -0.638468  -0.638468
                    b_3     0.368505   0.368505   0.368505
  
 *----------------------------------------------------------------------------*
 |   Site       Fractional Coordinate          Cartesian Coordinate (Ang)     |
 +----------------------------------------------------------------------------+
 | Nb   1   0.56554   0.43446   0.24979   |    3.52257  -0.53922   1.27566    |
 | Nb   2   0.56554   0.88128   0.24979   |    5.33745  -0.53922  -0.53922    |
 | Nb   3   0.11872   0.43446   0.24979   |    3.52257   1.27566  -0.53922    |
 | Nb   4   0.43446   0.56554   0.75021   |    7.57664   3.51485   1.69997    |
 | Nb   5   0.43446   0.11872   0.75021   |    5.76176   3.51485   3.51485    |
 | Nb   6   0.88128   0.56554   0.75021   |    7.57664   1.69997   3.51485    |
 | F    1   0.36319   0.63681   0.08956   |    3.21688  -0.84491  -0.84491    |
 | F    2   0.63681   0.36319   0.91044   |    7.88233   3.82053   3.82053    |
 | F    3   0.87596   0.12404   0.13103   |    1.42597  -2.63582   3.44403    |
 | F    4   0.87596   0.62088   0.13103   |    3.44403  -2.63582   1.42597    |
 | F    5   0.37912   0.12404   0.13103   |    1.42597  -0.61776   1.42597    |
 | F    6   0.12404   0.87596   0.86897   |    9.67324   5.61145  -0.46840    |
 | F    7   0.12404   0.37912   0.86897   |    7.65518   5.61145   1.54965    |
 | F    8   0.62088   0.87596   0.86897   |    9.67324   3.59339   1.54965    |
 | F    9   0.79171   0.20829   0.37512   |    3.48590  -0.57589   3.48590    |
 | F   10   0.20829   0.79171   0.62488   |    7.61331   3.55152  -0.51027    |
 | F   11   0.29362   0.70638   0.38687   |    5.59177   1.52998  -0.52536    |
 | F   12   0.29362   0.20036   0.38687   |    3.53643   1.52998   1.52998    |
 | F   13   0.79964   0.70638   0.38687   |    5.59177  -0.52536   1.52998    |
 | F   14   0.70638   0.29362   0.61313   |    5.50744   1.44565   3.50099    |
 | F   15   0.70638   0.79964   0.61313   |    7.56278   1.44565   1.44565    |
 | F   16   0.20036   0.29362   0.61313   |    5.50744   3.50099   1.44565    |
 *----------------------------------------------------------------------------*
  
                                ------------
                                K-POINT GRID
                                ------------
  
             Grid size =  7 x  7 x  7      Total points =  343
  
  
 *---------------------------------- MAIN ------------------------------------*
 |  Number of Wannier Functions               :                 2             |
 |  Number of input Bloch states              :               192             |
 |  Output verbosity (1=low, 5=high)          :                 1             |
 |  Timing Level (1=low, 5=high)              :                 1             |
 |  Optimisation (0=memory, 3=speed)          :                 3             |
 |  Length Unit                               :               Ang             |
 |  Post-processing setup (write *.nnkp)      :                 F             |
 |  Using Gamma-only branch of algorithms     :                 F             |
 *----------------------------------------------------------------------------*
 *------------------------------- WANNIERISE ---------------------------------*
 |  Total number of iterations                :            100000             |
 |  Number of CG steps before reset           :                 5             |
 |  Trial step length for line search         :             2.000             |
 |  Convergence tolerence                     :         0.100E-09             |
 |  Convergence window                        :                -1             |
 |  Iterations between writing output         :             10000             |
 |  Iterations between backing up to disk     :               100             |
 |  Write r^2_nm to file                      :                 F             |
 |  Write xyz WF centres to file              :                 T             |
 |  Use guiding centre to control phases      :                 T             |
 |  Iterations before starting guiding centres:                 0             |
 |  Iterations between using guiding centres  :                 1             |
 *----------------------------------------------------------------------------*
 *-------------------------------- PLOTTING ----------------------------------*
 |  Plotting interpolated bandstructure       :                 T             |
 |   Number of K-path sections                :                 3             |
 |   Divisions along first K-path section     :               100             |
 |   Output format                            :           gnuplot             |
 |   Output mode                              :               s-k             |
 *----------------------------------------------------------------------------*
 |   K-space path sections:                                                   |
 |    From:  G    0.000  0.000  0.000     To:  M    0.514  0.000 -0.171       |
 |    From:  M    0.514  0.000 -0.171     To:  K    0.343  0.343  0.000       |
 |    From:  K    0.343  0.343  0.000     To:  G    0.000  0.000  0.000       |
 *----------------------------------------------------------------------------*
 |  Plotting Hamiltonian in WF basis          :                 T             |
 *----------------------------------------------------------------------------*
 Time to read parameters        0.008 (sec)

 *---------------------------------- K-MESH ----------------------------------*
 +----------------------------------------------------------------------------+
 |                    Distance to Nearest-Neighbour Shells                    |
 |                    ------------------------------------                    |
 |          Shell             Distance (Ang^-1)          Multiplicity         |
 |          -----             -----------------          ------------         |
 |             1                   0.091181                      2            |
 |             2                   0.182363                      2            |
 |             3                   0.182976                      6            |
 |             4                   0.190399                      6            |
 |             5                   0.217571                      6            |
 |             6                   0.235905                      6            |
 |             7                   0.273544                      2            |
 |             8                   0.278966                      6            |
 |             9                   0.302785                      6            |
 |            10                   0.312521                      6            |
 |            11                   0.325551                     12            |
 |            12                   0.353461                      6            |
 |            13                   0.361836                     12            |
 |            14                   0.362146                      6            |
 |            15                   0.364726                      2            |
 +----------------------------------------------------------------------------+
 | The b-vectors are chosen automatically                                     |
 | The following shells are used:   1,  3                                     |
 +----------------------------------------------------------------------------+
 |                        Shell   # Nearest-Neighbours                        |
 |                        -----   --------------------                        |
 |                          1               2                                 |
 |                          3               6                                 |
 +----------------------------------------------------------------------------+
 | Completeness relation is fully satisfied [Eq. (B1), PRB 56, 12847 (1997)]  |
 +----------------------------------------------------------------------------+
 |                  b_k Vectors (Ang^-1) and Weights (Ang^2)                  |
 |                  ----------------------------------------                  |
 |            No.         b_k(x)      b_k(y)      b_k(z)        w_b           |
 |            ---        --------------------------------     --------        |
 |             1         0.052644    0.052644    0.052644    56.726311        |
 |             2        -0.052644   -0.052644   -0.052644    56.726311        |
 |             3         0.091210   -0.129776    0.091210    10.238621        |
 |             4        -0.091210    0.129776   -0.091210    10.238621        |
 |             5        -0.129776    0.091210    0.091210    10.238621        |
 |             6         0.129776   -0.091210   -0.091210    10.238621        |
 |             7         0.091210    0.091210   -0.129776    10.238621        |
 |             8        -0.091210   -0.091210    0.129776    10.238621        |
 +----------------------------------------------------------------------------+
 |                           b_k Directions (Ang^-1)                          |
 |                           -----------------------                          |
 |            No.           x           y           z                         |
 |            ---        --------------------------------                     |
 |             1         0.052644    0.052644    0.052644                     |
 |             2         0.091210   -0.129776    0.091210                     |
 |             3        -0.129776    0.091210    0.091210                     |
 |             4         0.091210    0.091210   -0.129776                     |
 +----------------------------------------------------------------------------+
  
 Time to write kmesh            0.121 (sec)

 Finished setting up k-point neighbours.

 Returning to pw2wannier90 at 16:48:04 

 Resuming Wannier90 at 16:52:42 

 Ignoring <mp_grid> in input file
 Ignoring <unit_cell_cart> in input file
 Ignoring <kpoints> in input file
 Ignoring <atoms_cart> in input file
 
                                    ------
                                    SYSTEM
                                    ------
 
                              Lattice Vectors (Ang)
                    a_1     0.000000  -4.061791   4.061791
                    a_2     4.061791   0.000000  -4.061791
                    a_3     7.037419   7.037419   2.975628
 
                   Unit Cell Volume:     281.30104  (Ang^3)
 
                        Reciprocal-Space Vectors (Ang^-1)
                    b_1     0.638468  -0.908432   0.638468
                    b_2     0.908432  -0.638468  -0.638468
                    b_3     0.368505   0.368505   0.368505
  
 *----------------------------------------------------------------------------*
 |   Site       Fractional Coordinate          Cartesian Coordinate (Ang)     |
 +----------------------------------------------------------------------------+
 | Nb   1   0.56554   0.43446   0.24979   |    3.52257  -0.53922   1.27566    |
 | Nb   2   0.56554   0.88128   0.24979   |    5.33745  -0.53922  -0.53922    |
 | Nb   3   0.11872   0.43446   0.24979   |    3.52257   1.27566  -0.53922    |
 | Nb   4   0.43446   0.56554   0.75021   |    7.57664   3.51485   1.69997    |
 | Nb   5   0.43446   0.11872   0.75021   |    5.76176   3.51485   3.51485    |
 | Nb   6   0.88128   0.56554   0.75021   |    7.57664   1.69997   3.51485    |
 | F    1   0.36319   0.63681   0.08956   |    3.21688  -0.84491  -0.84491    |
 | F    2   0.63681   0.36319   0.91044   |    7.88233   3.82053   3.82053    |
 | F    3   0.87596   0.12404   0.13103   |    1.42597  -2.63582   3.44403    |
 | F    4   0.87596   0.62088   0.13103   |    3.44403  -2.63582   1.42597    |
 | F    5   0.37912   0.12404   0.13103   |    1.42597  -0.61776   1.42597    |
 | F    6   0.12404   0.87596   0.86897   |    9.67324   5.61145  -0.46840    |
 | F    7   0.12404   0.37912   0.86897   |    7.65518   5.61145   1.54965    |
 | F    8   0.62088   0.87596   0.86897   |    9.67324   3.59339   1.54965    |
 | F    9   0.79171   0.20829   0.37512   |    3.48590  -0.57589   3.48590    |
 | F   10   0.20829   0.79171   0.62488   |    7.61331   3.55152  -0.51027    |
 | F   11   0.29362   0.70638   0.38687   |    5.59177   1.52998  -0.52536    |
 | F   12   0.29362   0.20036   0.38687   |    3.53643   1.52998   1.52998    |
 | F   13   0.79964   0.70638   0.38687   |    5.59177  -0.52536   1.52998    |
 | F   14   0.70638   0.29362   0.61313   |    5.50744   1.44565   3.50099    |
 | F   15   0.70638   0.79964   0.61313   |    7.56278   1.44565   1.44565    |
 | F   16   0.20036   0.29362   0.61313   |    5.50744   3.50099   1.44565    |
 *----------------------------------------------------------------------------*
  
                                ------------
                                K-POINT GRID
                                ------------
  
             Grid size =  7 x  7 x  7      Total points =  343
  
  
 *---------------------------------- MAIN ------------------------------------*
 |  Number of Wannier Functions               :                 2             |
 |  Number of input Bloch states              :               192             |
 |  Output verbosity (1=low, 5=high)          :                 1             |
 |  Timing Level (1=low, 5=high)              :                 1             |
 |  Optimisation (0=memory, 3=speed)          :                 3             |
 |  Length Unit                               :               Ang             |
 |  Post-processing setup (write *.nnkp)      :                 F             |
 |  Using Gamma-only branch of algorithms     :                 F             |
 *----------------------------------------------------------------------------*
 *------------------------------- WANNIERISE ---------------------------------*
 |  Total number of iterations                :            100000             |
 |  Number of CG steps before reset           :                 5             |
 |  Trial step length for line search         :             2.000             |
 |  Convergence tolerence                     :         0.100E-09             |
 |  Convergence window                        :                -1             |
 |  Iterations between writing output         :             10000             |
 |  Iterations between backing up to disk     :               100             |
 |  Write r^2_nm to file                      :                 F             |
 |  Write xyz WF centres to file              :                 T             |
 |  Use guiding centre to control phases      :                 T             |
 |  Iterations before starting guiding centres:                 0             |
 |  Iterations between using guiding centres  :                 1             |
 *----------------------------------------------------------------------------*
 *------------------------------- DISENTANGLE --------------------------------*
 |  Using band disentanglement                :                 T             |
 |  Total number of iterations                :               200             |
 |  Mixing ratio                              :             0.500             |
 |  Convergence tolerence                     :         1.000E-10             |
 |  Convergence window                        :                 3             |
 *----------------------------------------------------------------------------*
 *-------------------------------- PLOTTING ----------------------------------*
 |  Plotting interpolated bandstructure       :                 T             |
 |   Number of K-path sections                :                 3             |
 |   Divisions along first K-path section     :               100             |
 |   Output format                            :           gnuplot             |
 |   Output mode                              :               s-k             |
 *----------------------------------------------------------------------------*
 |   K-space path sections:                                                   |
 |    From:  G    0.000  0.000  0.000     To:  M    0.514  0.000 -0.171       |
 |    From:  M    0.514  0.000 -0.171     To:  K    0.343  0.343  0.000       |
 |    From:  K    0.343  0.343  0.000     To:  G    0.000  0.000  0.000       |
 *----------------------------------------------------------------------------*
 |  Plotting Hamiltonian in WF basis          :                 T             |
 *----------------------------------------------------------------------------*
 Time to read parameters        0.009 (sec)

 *---------------------------------- K-MESH ----------------------------------*
 +----------------------------------------------------------------------------+
 |                    Distance to Nearest-Neighbour Shells                    |
 |                    ------------------------------------                    |
 |          Shell             Distance (Ang^-1)          Multiplicity         |
 |          -----             -----------------          ------------         |
 |             1                   0.091181                      2            |
 |             2                   0.182363                      2            |
 |             3                   0.182976                      6            |
 |             4                   0.190399                      6            |
 |             5                   0.217571                      6            |
 |             6                   0.235905                      6            |
 |             7                   0.273544                      2            |
 |             8                   0.278966                      6            |
 |             9                   0.302785                      6            |
 |            10                   0.312521                      6            |
 |            11                   0.325551                     12            |
 |            12                   0.353461                      6            |
 |            13                   0.361836                     12            |
 |            14                   0.362146                      6            |
 |            15                   0.364726                      2            |
 +----------------------------------------------------------------------------+
 | The b-vectors are chosen automatically                                     |
 | The following shells are used:   1,  3                                     |
 +----------------------------------------------------------------------------+
 |                        Shell   # Nearest-Neighbours                        |
 |                        -----   --------------------                        |
 |                          1               2                                 |
 |                          3               6                                 |
 +----------------------------------------------------------------------------+
 | Completeness relation is fully satisfied [Eq. (B1), PRB 56, 12847 (1997)]  |
 +----------------------------------------------------------------------------+
 |                  b_k Vectors (Ang^-1) and Weights (Ang^2)                  |
 |                  ----------------------------------------                  |
 |            No.         b_k(x)      b_k(y)      b_k(z)        w_b           |
 |            ---        --------------------------------     --------        |
 |             1         0.052644    0.052644    0.052644    56.726311        |
 |             2        -0.052644   -0.052644   -0.052644    56.726311        |
 |             3         0.091210   -0.129776    0.091210    10.238621        |
 |             4        -0.091210    0.129776   -0.091210    10.238621        |
 |             5        -0.129776    0.091210    0.091210    10.238621        |
 |             6         0.129776   -0.091210   -0.091210    10.238621        |
 |             7         0.091210    0.091210   -0.129776    10.238621        |
 |             8        -0.091210   -0.091210    0.129776    10.238621        |
 +----------------------------------------------------------------------------+
 |                           b_k Directions (Ang^-1)                          |
 |                           -----------------------                          |
 |            No.           x           y           z                         |
 |            ---        --------------------------------                     |
 |             1         0.052644    0.052644    0.052644                     |
 |             2         0.091210   -0.129776    0.091210                     |
 |             3        -0.129776    0.091210    0.091210                     |
 |             4         0.091210    0.091210   -0.129776                     |
 +----------------------------------------------------------------------------+
  
 Time to get kmesh              0.124 (sec)

 *------------------------------- DISENTANGLE --------------------------------*
 +----------------------------------------------------------------------------+
 |                              Energy  Windows                               |
 |                              ---------------                               |
 |                   Outer:    2.80000  to    3.80000  (eV)                   |
 |                   Inner:    2.81000  to    3.79000  (eV)                   |
 +----------------------------------------------------------------------------+
   Number of target bands to extract:    2

                   Unitarised projection of Wannier functions                  
                   ------------------------------------------                  
   A_mn = <psi_m|g_n> --> S = A.A^+ --> U = S^-1/2.A
   In dis_project... done
   Using an inner window (linner = T)
   In dis_proj_froz... done

                   Extraction of optimally-connected subspace                  
                   ------------------------------------------                  
 +---------------------------------------------------------------------+<-- DIS
 |  Iter     Omega_I(i-1)      Omega_I(i)      Delta (frac.)    Time   |<-- DIS
 +---------------------------------------------------------------------+<-- DIS
       1       8.76270730       8.76270730       1.110E-15    246.86    <-- DIS
       2       8.76270730       8.76270730       1.110E-15    246.86    <-- DIS
       3       8.76270730       8.76270730       1.110E-15    246.87    <-- DIS

             <<<      Delta < 1.000E-10  over  3 iterations     >>>
             <<< Disentanglement convergence criteria satisfied >>>

        Final Omega_I     8.76270730 (Ang^2)

 +----------------------------------------------------------------------------+


 Writing checkpoint file wannier90.chk... done

 Time to disentangle           19.257 (sec)
 
 *------------------------------- WANNIERISE ---------------------------------*
 +--------------------------------------------------------------------+<-- CONV
 | Iter  Delta Spread     RMS Gradient      Spread (Ang^2)      Time  |<-- CONV
 +--------------------------------------------------------------------+<-- CONV
 
 ------------------------------------------------------------------------------
 Initial State
  WF centre and spread    1  (  4.170132,  0.108343,  0.108341 )     4.42262320
  WF centre and spread    2  (  6.929077,  2.867285,  2.867286 )     4.42262320
  Sum of centres and spreads ( 11.099209,  2.975628,  2.975628 )     8.84524639
 
      0     0.885E+01     0.0000000000        8.8452463903     246.94  <-- CONV
        O_D=      0.0824562 O_OD=      0.0000829 O_TOT=      8.8452464 <-- SPRD
 ------------------------------------------------------------------------------
 Cycle:      1
  WF centre and spread    1  (  4.170132,  0.108343,  0.108341 )     4.41701287
  WF centre and spread    2  (  6.929077,  2.867285,  2.867286 )     4.41701287
  Sum of centres and spreads ( 11.099209,  2.975628,  2.975628 )     8.83402573
 
      1    -0.112E-01     0.1188942354        8.8340257348     246.95  <-- CONV
        O_D=      0.0712356 O_OD=      0.0000829 O_TOT=      8.8340257 <-- SPRD
 Delta: O_D= -0.1122066E-01 O_OD=  0.6303055E-11 O_TOT= -0.1122066E-01 <-- DLTA
 ------------------------------------------------------------------------------

 Writing checkpoint file wannier90.chk... done


 Writing checkpoint file wannier90.chk... done


 Writing checkpoint file wannier90.chk... done


 Writing checkpoint file wannier90.chk... done


 Writing checkpoint file wannier90.chk... done


 Writing checkpoint file wannier90.chk... done


 Writing checkpoint file wannier90.chk... done


 Writing checkpoint file wannier90.chk... done


 Writing checkpoint file wannier90.chk... done


 Writing checkpoint file wannier90.chk... done


 Writing checkpoint file wannier90.chk... done


 Writing checkpoint file wannier90.chk... done


 Writing checkpoint file wannier90.chk... done


 Writing checkpoint file wannier90.chk... done


 Writing checkpoint file wannier90.chk... done


 Writing checkpoint file wannier90.chk... done


 Writing checkpoint file wannier90.chk... done


 Writing checkpoint file wannier90.chk... done


 Writing checkpoint file wannier90.chk... done


 Writing checkpoint file wannier90.chk... done


 Writing checkpoint file wannier90.chk... done


 Writing checkpoint file wannier90.chk... done


 Writing checkpoint file wannier90.chk... done


 Writing checkpoint file wannier90.chk... done


 Writing checkpoint file wannier90.chk... done


 Writing checkpoint file wannier90.chk... done


 Writing checkpoint file wannier90.chk... done


 Writing checkpoint file wannier90.chk... done


 Writing checkpoint file wannier90.chk... done


 Writing checkpoint file wannier90.chk... done


 Writing checkpoint file wannier90.chk... done


 Writing checkpoint file wannier90.chk... done


 Writing checkpoint file wannier90.chk... done


 Writing checkpoint file wannier90.chk... done


 Writing checkpoint file wannier90.chk... done


 Writing checkpoint file wannier90.chk... done


 Writing checkpoint file wannier90.chk... done


 Writing checkpoint file wannier90.chk... done


 Writing checkpoint file wannier90.chk... done


 Writing checkpoint file wannier90.chk... done


 Writing checkpoint file wannier90.chk... done


 Writing checkpoint file wannier90.chk... done


 Writing checkpoint file wannier90.chk... done


 Writing checkpoint file wannier90.chk... done


 Writing checkpoint file wannier90.chk... done


 Writing checkpoint file wannier90.chk... done


 Writing checkpoint file wannier90.chk... done


 Writing checkpoint file wannier90.chk... done


 Writing checkpoint file wannier90.chk... done


 Writing checkpoint file wannier90.chk... done


 Writing checkpoint file wannier90.chk... done


 Writing checkpoint file wannier90.chk... done


 Writing checkpoint file wannier90.chk... done


 Writing checkpoint file wannier90.chk... done


 Writing checkpoint file wannier90.chk... done


 Writing checkpoint file wannier90.chk... done


 Writing checkpoint file wannier90.chk... done


 Writing checkpoint file wannier90.chk... done


 Writing checkpoint file wannier90.chk... done


 Writing checkpoint file wannier90.chk... done


 Writing checkpoint file wannier90.chk... done


 Writing checkpoint file wannier90.chk... done


 Writing checkpoint file wannier90.chk... done


 Writing checkpoint file wannier90.chk... done


 Writing checkpoint file wannier90.chk... done


 Writing checkpoint file wannier90.chk... done


 Writing checkpoint file wannier90.chk... done


 Writing checkpoint file wannier90.chk... done


 Writing checkpoint file wannier90.chk... done


 Writing checkpoint file wannier90.chk... done


 Writing checkpoint file wannier90.chk... done


 Writing checkpoint file wannier90.chk... done


 Writing checkpoint file wannier90.chk... done


 Writing checkpoint file wannier90.chk... done


 Writing checkpoint file wannier90.chk... done


 Writing checkpoint file wannier90.chk... done


 Writing checkpoint file wannier90.chk... done


 Writing checkpoint file wannier90.chk... done


 Writing checkpoint file wannier90.chk... done


 Writing checkpoint file wannier90.chk... done


 Writing checkpoint file wannier90.chk... done


 Writing checkpoint file wannier90.chk... done


 Writing checkpoint file wannier90.chk... done


 Writing checkpoint file wannier90.chk... done


 Writing checkpoint file wannier90.chk... done


 Writing checkpoint file wannier90.chk... done


 Writing checkpoint file wannier90.chk... done


 Writing checkpoint file wannier90.chk... done


 Writing checkpoint file wannier90.chk... done


 Writing checkpoint file wannier90.chk... done


 Writing checkpoint file wannier90.chk... done


 Writing checkpoint file wannier90.chk... done


 Writing checkpoint file wannier90.chk... done


 Writing checkpoint file wannier90.chk... done


 Writing checkpoint file wannier90.chk... done


 Writing checkpoint file wannier90.chk... done


 Writing checkpoint file wannier90.chk... done


 Writing checkpoint file wannier90.chk... done


 Writing checkpoint file wannier90.chk... done

 Cycle:  10000
  WF centre and spread    1  (  4.170132,  0.108343,  0.108341 )     4.41612705
  WF centre and spread    2  (  6.929077,  2.867285,  2.867286 )     4.41612705
  Sum of centres and spreads ( 11.099209,  2.975628,  2.975628 )     8.83225411
 
  10000     0.000E+00     0.0000000002        8.8322541055     286.22  <-- CONV
        O_D=      0.0694639 O_OD=      0.0000829 O_TOT=      8.8322541 <-- SPRD
 Delta: O_D=  0.9714451E-16 O_OD=  0.0000000E+00 O_TOT=  0.0000000E+00 <-- DLTA
 ------------------------------------------------------------------------------

 Writing checkpoint file wannier90.chk... done


 Writing checkpoint file wannier90.chk... done


 Writing checkpoint file wannier90.chk... done


 Writing checkpoint file wannier90.chk... done


 Writing checkpoint file wannier90.chk... done


 Writing checkpoint file wannier90.chk... done


 Writing checkpoint file wannier90.chk... done


 Writing checkpoint file wannier90.chk... done


 Writing checkpoint file wannier90.chk... done


 Writing checkpoint file wannier90.chk... done


 Writing checkpoint file wannier90.chk... done


 Writing checkpoint file wannier90.chk... done


 Writing checkpoint file wannier90.chk... done


 Writing checkpoint file wannier90.chk... done


 Writing checkpoint file wannier90.chk... done


 Writing checkpoint file wannier90.chk... done


 Writing checkpoint file wannier90.chk... done


 Writing checkpoint file wannier90.chk... done


 Writing checkpoint file wannier90.chk... done


 Writing checkpoint file wannier90.chk... done


 Writing checkpoint file wannier90.chk... done


 Writing checkpoint file wannier90.chk... done


 Writing checkpoint file wannier90.chk... done


 Writing checkpoint file wannier90.chk... done


 Writing checkpoint file wannier90.chk... done


 Writing checkpoint file wannier90.chk... done


 Writing checkpoint file wannier90.chk... done


 Writing checkpoint file wannier90.chk... done


 Writing checkpoint file wannier90.chk... done


 Writing checkpoint file wannier90.chk... done


 Writing checkpoint file wannier90.chk... done


 Writing checkpoint file wannier90.chk... done


 Writing checkpoint file wannier90.chk... done


 Writing checkpoint file wannier90.chk... done


 Writing checkpoint file wannier90.chk... done


 Writing checkpoint file wannier90.chk... done


 Writing checkpoint file wannier90.chk... done


 Writing checkpoint file wannier90.chk... done


 Writing checkpoint file wannier90.chk... done


 Writing checkpoint file wannier90.chk... done


 Writing checkpoint file wannier90.chk... done


 Writing checkpoint file wannier90.chk... done


 Writing checkpoint file wannier90.chk... done


 Writing checkpoint file wannier90.chk... done


 Writing checkpoint file wannier90.chk... done


 Writing checkpoint file wannier90.chk... done


 Writing checkpoint file wannier90.chk... done


 Writing checkpoint file wannier90.chk... done


 Writing checkpoint file wannier90.chk... done


 Writing checkpoint file wannier90.chk... done


 Writing checkpoint file wannier90.chk... done


 Writing checkpoint file wannier90.chk... done


 Writing checkpoint file wannier90.chk... done


 Writing checkpoint file wannier90.chk... done


 Writing checkpoint file wannier90.chk... done


 Writing checkpoint file wannier90.chk... done


 Writing checkpoint file wannier90.chk... done


 Writing checkpoint file wannier90.chk... done


 Writing checkpoint file wannier90.chk... done


 Writing checkpoint file wannier90.chk... done


 Writing checkpoint file wannier90.chk... done


 Writing checkpoint file wannier90.chk... done


 Writing checkpoint file wannier90.chk... done


 Writing checkpoint file wannier90.chk... done


 Writing checkpoint file wannier90.chk... done


 Writing checkpoint file wannier90.chk... done


 Writing checkpoint file wannier90.chk... done


 Writing checkpoint file wannier90.chk... done


 Writing checkpoint file wannier90.chk... done


 Writing checkpoint file wannier90.chk... done


 Writing checkpoint file wannier90.chk... done


 Writing checkpoint file wannier90.chk... done


 Writing checkpoint file wannier90.chk... done


 Writing checkpoint file wannier90.chk... done


 Writing checkpoint file wannier90.chk... done


 Writing checkpoint file wannier90.chk... done


 Writing checkpoint file wannier90.chk... done


 Writing checkpoint file wannier90.chk... done


 Writing checkpoint file wannier90.chk... done


 Writing checkpoint file wannier90.chk... done


 Writing checkpoint file wannier90.chk... done


 Writing checkpoint file wannier90.chk... done


 Writing checkpoint file wannier90.chk... done


 Writing checkpoint file wannier90.chk... done


 Writing checkpoint file wannier90.chk... done


 Writing checkpoint file wannier90.chk... done


 Writing checkpoint file wannier90.chk... done


 Writing checkpoint file wannier90.chk... done


 Writing checkpoint file wannier90.chk... done


 Writing checkpoint file wannier90.chk... done


 Writing checkpoint file wannier90.chk... done


 Writing checkpoint file wannier90.chk... done


 Writing checkpoint file wannier90.chk... done


 Writing checkpoint file wannier90.chk... done


 Writing checkpoint file wannier90.chk... done


 Writing checkpoint file wannier90.chk... done


 Writing checkpoint file wannier90.chk... done


 Writing checkpoint file wannier90.chk... done


 Writing checkpoint file wannier90.chk... done


 Writing checkpoint file wannier90.chk... done

 Cycle:  20000
  WF centre and spread    1  (  4.170132,  0.108343,  0.108341 )     4.41612705
  WF centre and spread    2  (  6.929077,  2.867285,  2.867286 )     4.41612705
  Sum of centres and spreads ( 11.099209,  2.975628,  2.975628 )     8.83225411
 
  20000     0.000E+00     0.0000000000        8.8322541055     325.63  <-- CONV
        O_D=      0.0694639 O_OD=      0.0000829 O_TOT=      8.8322541 <-- SPRD
 Delta: O_D= -0.2775558E-16 O_OD=  0.1355253E-18 O_TOT=  0.0000000E+00 <-- DLTA
 ------------------------------------------------------------------------------

 Writing checkpoint file wannier90.chk... done


 Writing checkpoint file wannier90.chk... done


 Writing checkpoint file wannier90.chk... done


 Writing checkpoint file wannier90.chk... done


 Writing checkpoint file wannier90.chk... done


 Writing checkpoint file wannier90.chk... done


 Writing checkpoint file wannier90.chk... done


 Writing checkpoint file wannier90.chk... done


 Writing checkpoint file wannier90.chk... done


 Writing checkpoint file wannier90.chk... done


 Writing checkpoint file wannier90.chk... done


 Writing checkpoint file wannier90.chk... done


 Writing checkpoint file wannier90.chk... done


 Writing checkpoint file wannier90.chk... done


 Writing checkpoint file wannier90.chk... done


 Writing checkpoint file wannier90.chk... done


 Writing checkpoint file wannier90.chk... done


 Writing checkpoint file wannier90.chk... done


 Writing checkpoint file wannier90.chk... done


 Writing checkpoint file wannier90.chk... done


 Writing checkpoint file wannier90.chk... done


 Writing checkpoint file wannier90.chk... done


 Writing checkpoint file wannier90.chk... done


 Writing checkpoint file wannier90.chk... done


 Writing checkpoint file wannier90.chk... done


 Writing checkpoint file wannier90.chk... done


 Writing checkpoint file wannier90.chk... done


 Writing checkpoint file wannier90.chk... done


 Writing checkpoint file wannier90.chk... done


 Writing checkpoint file wannier90.chk... done


 Writing checkpoint file wannier90.chk... done


 Writing checkpoint file wannier90.chk... done


 Writing checkpoint file wannier90.chk... done


 Writing checkpoint file wannier90.chk... done


 Writing checkpoint file wannier90.chk... done


 Writing checkpoint file wannier90.chk... done


 Writing checkpoint file wannier90.chk... done


 Writing checkpoint file wannier90.chk... done


 Writing checkpoint file wannier90.chk... done


 Writing checkpoint file wannier90.chk... done


 Writing checkpoint file wannier90.chk... done


 Writing checkpoint file wannier90.chk... done


 Writing checkpoint file wannier90.chk... done


 Writing checkpoint file wannier90.chk... done


 Writing checkpoint file wannier90.chk... done


 Writing checkpoint file wannier90.chk... done


 Writing checkpoint file wannier90.chk... done


 Writing checkpoint file wannier90.chk... done


 Writing checkpoint file wannier90.chk... done


 Writing checkpoint file wannier90.chk... done


 Writing checkpoint file wannier90.chk... done


 Writing checkpoint file wannier90.chk... done


 Writing checkpoint file wannier90.chk... done


 Writing checkpoint file wannier90.chk... done


 Writing checkpoint file wannier90.chk... done


 Writing checkpoint file wannier90.chk... done


 Writing checkpoint file wannier90.chk... done


 Writing checkpoint file wannier90.chk... done


 Writing checkpoint file wannier90.chk... done


 Writing checkpoint file wannier90.chk... done


 Writing checkpoint file wannier90.chk... done


 Writing checkpoint file wannier90.chk... done


 Writing checkpoint file wannier90.chk... done


 Writing checkpoint file wannier90.chk... done


 Writing checkpoint file wannier90.chk... done


 Writing checkpoint file wannier90.chk... done


 Writing checkpoint file wannier90.chk... done


 Writing checkpoint file wannier90.chk... done


 Writing checkpoint file wannier90.chk... done


 Writing checkpoint file wannier90.chk... done


 Writing checkpoint file wannier90.chk... done


 Writing checkpoint file wannier90.chk... done


 Writing checkpoint file wannier90.chk... done


 Writing checkpoint file wannier90.chk... done


 Writing checkpoint file wannier90.chk... done


 Writing checkpoint file wannier90.chk... done


 Writing checkpoint file wannier90.chk... done


 Writing checkpoint file wannier90.chk... done


 Writing checkpoint file wannier90.chk... done


 Writing checkpoint file wannier90.chk... done


 Writing checkpoint file wannier90.chk... done


 Writing checkpoint file wannier90.chk... done


 Writing checkpoint file wannier90.chk... done


 Writing checkpoint file wannier90.chk... done


 Writing checkpoint file wannier90.chk... done


 Writing checkpoint file wannier90.chk... done


 Writing checkpoint file wannier90.chk... done


 Writing checkpoint file wannier90.chk... done


 Writing checkpoint file wannier90.chk... done


 Writing checkpoint file wannier90.chk... done


 Writing checkpoint file wannier90.chk... done


 Writing checkpoint file wannier90.chk... done


 Writing checkpoint file wannier90.chk... done


 Writing checkpoint file wannier90.chk... done


 Writing checkpoint file wannier90.chk... done


 Writing checkpoint file wannier90.chk... done


 Writing checkpoint file wannier90.chk... done


 Writing checkpoint file wannier90.chk... done


 Writing checkpoint file wannier90.chk... done


 Writing checkpoint file wannier90.chk... done

 Cycle:  30000
  WF centre and spread    1  (  4.170132,  0.108343,  0.108341 )     4.41612705
  WF centre and spread    2  (  6.929077,  2.867285,  2.867286 )     4.41612705
  Sum of centres and spreads ( 11.099209,  2.975628,  2.975628 )     8.83225411
 
  30000     0.000E+00     0.0000000000        8.8322541055     364.97  <-- CONV
        O_D=      0.0694639 O_OD=      0.0000829 O_TOT=      8.8322541 <-- SPRD
 Delta: O_D= -0.5551115E-16 O_OD=  0.1084202E-18 O_TOT=  0.0000000E+00 <-- DLTA
 ------------------------------------------------------------------------------

 Writing checkpoint file wannier90.chk... done


 Writing checkpoint file wannier90.chk... done


 Writing checkpoint file wannier90.chk... done


 Writing checkpoint file wannier90.chk... done


 Writing checkpoint file wannier90.chk... done


 Writing checkpoint file wannier90.chk... done


 Writing checkpoint file wannier90.chk... done


 Writing checkpoint file wannier90.chk... done


 Writing checkpoint file wannier90.chk... done


 Writing checkpoint file wannier90.chk... done


 Writing checkpoint file wannier90.chk... done


 Writing checkpoint file wannier90.chk... done


 Writing checkpoint file wannier90.chk... done


 Writing checkpoint file wannier90.chk... done


 Writing checkpoint file wannier90.chk... done


 Writing checkpoint file wannier90.chk... done


 Writing checkpoint file wannier90.chk... done


 Writing checkpoint file wannier90.chk... done


 Writing checkpoint file wannier90.chk... done


 Writing checkpoint file wannier90.chk... done


 Writing checkpoint file wannier90.chk... done


 Writing checkpoint file wannier90.chk... done


 Writing checkpoint file wannier90.chk... done


 Writing checkpoint file wannier90.chk... done


 Writing checkpoint file wannier90.chk... done


 Writing checkpoint file wannier90.chk... done


 Writing checkpoint file wannier90.chk... done


 Writing checkpoint file wannier90.chk... done


 Writing checkpoint file wannier90.chk... done


 Writing checkpoint file wannier90.chk... done


 Writing checkpoint file wannier90.chk... done


 Writing checkpoint file wannier90.chk... done


 Writing checkpoint file wannier90.chk... done


 Writing checkpoint file wannier90.chk... done


 Writing checkpoint file wannier90.chk... done


 Writing checkpoint file wannier90.chk... done


 Writing checkpoint file wannier90.chk... done


 Writing checkpoint file wannier90.chk... done


 Writing checkpoint file wannier90.chk... done


 Writing checkpoint file wannier90.chk... done


 Writing checkpoint file wannier90.chk... done


 Writing checkpoint file wannier90.chk... done


 Writing checkpoint file wannier90.chk... done


 Writing checkpoint file wannier90.chk... done


 Writing checkpoint file wannier90.chk... done


 Writing checkpoint file wannier90.chk... done


 Writing checkpoint file wannier90.chk... done


 Writing checkpoint file wannier90.chk... done


 Writing checkpoint file wannier90.chk... done


 Writing checkpoint file wannier90.chk... done


 Writing checkpoint file wannier90.chk... done


 Writing checkpoint file wannier90.chk... done


 Writing checkpoint file wannier90.chk... done


 Writing checkpoint file wannier90.chk... done


 Writing checkpoint file wannier90.chk... done


 Writing checkpoint file wannier90.chk... done


 Writing checkpoint file wannier90.chk... done


 Writing checkpoint file wannier90.chk... done


 Writing checkpoint file wannier90.chk... done


 Writing checkpoint file wannier90.chk... done


 Writing checkpoint file wannier90.chk... done


 Writing checkpoint file wannier90.chk... done


 Writing checkpoint file wannier90.chk... done


 Writing checkpoint file wannier90.chk... done


 Writing checkpoint file wannier90.chk... done


 Writing checkpoint file wannier90.chk... done


 Writing checkpoint file wannier90.chk... done


 Writing checkpoint file wannier90.chk... done


 Writing checkpoint file wannier90.chk... done


 Writing checkpoint file wannier90.chk... done


 Writing checkpoint file wannier90.chk... done


 Writing checkpoint file wannier90.chk... done


 Writing checkpoint file wannier90.chk... done


 Writing checkpoint file wannier90.chk... done


 Writing checkpoint file wannier90.chk... done


 Writing checkpoint file wannier90.chk... done


 Writing checkpoint file wannier90.chk... done


 Writing checkpoint file wannier90.chk... done


 Writing checkpoint file wannier90.chk... done


 Writing checkpoint file wannier90.chk... done


 Writing checkpoint file wannier90.chk... done


 Writing checkpoint file wannier90.chk... done


 Writing checkpoint file wannier90.chk... done


 Writing checkpoint file wannier90.chk... done


 Writing checkpoint file wannier90.chk... done


 Writing checkpoint file wannier90.chk... done


 Writing checkpoint file wannier90.chk... done


 Writing checkpoint file wannier90.chk... done


 Writing checkpoint file wannier90.chk... done


 Writing checkpoint file wannier90.chk... done


 Writing checkpoint file wannier90.chk... done


 Writing checkpoint file wannier90.chk... done


 Writing checkpoint file wannier90.chk... done


 Writing checkpoint file wannier90.chk... done


 Writing checkpoint file wannier90.chk... done


 Writing checkpoint file wannier90.chk... done


 Writing checkpoint file wannier90.chk... done


 Writing checkpoint file wannier90.chk... done


 Writing checkpoint file wannier90.chk... done


 Writing checkpoint file wannier90.chk... done

 Cycle:  40000
  WF centre and spread    1  (  4.170132,  0.108343,  0.108341 )     4.41612705
  WF centre and spread    2  (  6.929077,  2.867285,  2.867286 )     4.41612705
  Sum of centres and spreads ( 11.099209,  2.975628,  2.975628 )     8.83225411
 
  40000     0.000E+00     0.0000000000        8.8322541055     404.46  <-- CONV
        O_D=      0.0694639 O_OD=      0.0000829 O_TOT=      8.8322541 <-- SPRD
 Delta: O_D= -0.1665335E-15 O_OD= -0.1084202E-18 O_TOT=  0.0000000E+00 <-- DLTA
 ------------------------------------------------------------------------------

 Writing checkpoint file wannier90.chk... done


 Writing checkpoint file wannier90.chk... done


 Writing checkpoint file wannier90.chk... done


 Writing checkpoint file wannier90.chk... done


 Writing checkpoint file wannier90.chk... done


 Writing checkpoint file wannier90.chk... done


 Writing checkpoint file wannier90.chk... done


 Writing checkpoint file wannier90.chk... done


 Writing checkpoint file wannier90.chk... done


 Writing checkpoint file wannier90.chk... done


 Writing checkpoint file wannier90.chk... done


 Writing checkpoint file wannier90.chk... done


 Writing checkpoint file wannier90.chk... done


 Writing checkpoint file wannier90.chk... done


 Writing checkpoint file wannier90.chk... done


 Writing checkpoint file wannier90.chk... done


 Writing checkpoint file wannier90.chk... done


 Writing checkpoint file wannier90.chk... done


 Writing checkpoint file wannier90.chk... done


 Writing checkpoint file wannier90.chk... done


 Writing checkpoint file wannier90.chk... done


 Writing checkpoint file wannier90.chk... done


 Writing checkpoint file wannier90.chk... done


 Writing checkpoint file wannier90.chk... done


 Writing checkpoint file wannier90.chk... done


 Writing checkpoint file wannier90.chk... done


 Writing checkpoint file wannier90.chk... done


 Writing checkpoint file wannier90.chk... done


 Writing checkpoint file wannier90.chk... done


 Writing checkpoint file wannier90.chk... done


 Writing checkpoint file wannier90.chk... done


 Writing checkpoint file wannier90.chk... done


 Writing checkpoint file wannier90.chk... done


 Writing checkpoint file wannier90.chk... done


 Writing checkpoint file wannier90.chk... done


 Writing checkpoint file wannier90.chk... done


 Writing checkpoint file wannier90.chk... done


 Writing checkpoint file wannier90.chk... done


 Writing checkpoint file wannier90.chk... done


 Writing checkpoint file wannier90.chk... done


 Writing checkpoint file wannier90.chk... done


 Writing checkpoint file wannier90.chk... done


 Writing checkpoint file wannier90.chk... done


 Writing checkpoint file wannier90.chk... done


 Writing checkpoint file wannier90.chk... done


 Writing checkpoint file wannier90.chk... done


 Writing checkpoint file wannier90.chk... done


 Writing checkpoint file wannier90.chk... done


 Writing checkpoint file wannier90.chk... done


 Writing checkpoint file wannier90.chk... done


 Writing checkpoint file wannier90.chk... done


 Writing checkpoint file wannier90.chk... done


 Writing checkpoint file wannier90.chk... done


 Writing checkpoint file wannier90.chk... done


 Writing checkpoint file wannier90.chk... done


 Writing checkpoint file wannier90.chk... done


 Writing checkpoint file wannier90.chk... done


 Writing checkpoint file wannier90.chk... done


 Writing checkpoint file wannier90.chk... done


 Writing checkpoint file wannier90.chk... done


 Writing checkpoint file wannier90.chk... done


 Writing checkpoint file wannier90.chk... done


 Writing checkpoint file wannier90.chk... done


 Writing checkpoint file wannier90.chk... done


 Writing checkpoint file wannier90.chk... done


 Writing checkpoint file wannier90.chk... done


 Writing checkpoint file wannier90.chk... done


 Writing checkpoint file wannier90.chk... done


 Writing checkpoint file wannier90.chk... done


 Writing checkpoint file wannier90.chk... done


 Writing checkpoint file wannier90.chk... done


 Writing checkpoint file wannier90.chk... done


 Writing checkpoint file wannier90.chk... done


 Writing checkpoint file wannier90.chk... done


 Writing checkpoint file wannier90.chk... done


 Writing checkpoint file wannier90.chk... done


 Writing checkpoint file wannier90.chk... done


 Writing checkpoint file wannier90.chk... done


 Writing checkpoint file wannier90.chk... done


 Writing checkpoint file wannier90.chk... done


 Writing checkpoint file wannier90.chk... done


 Writing checkpoint file wannier90.chk... done


 Writing checkpoint file wannier90.chk... done


 Writing checkpoint file wannier90.chk... done


 Writing checkpoint file wannier90.chk... done


 Writing checkpoint file wannier90.chk... done


 Writing checkpoint file wannier90.chk... done


 Writing checkpoint file wannier90.chk... done


 Writing checkpoint file wannier90.chk... done


 Writing checkpoint file wannier90.chk... done


 Writing checkpoint file wannier90.chk... done


 Writing checkpoint file wannier90.chk... done


 Writing checkpoint file wannier90.chk... done


 Writing checkpoint file wannier90.chk... done


 Writing checkpoint file wannier90.chk... done


 Writing checkpoint file wannier90.chk... done


 Writing checkpoint file wannier90.chk... done


 Writing checkpoint file wannier90.chk... done


 Writing checkpoint file wannier90.chk... done


 Writing checkpoint file wannier90.chk... done

 Cycle:  50000
  WF centre and spread    1  (  4.170132,  0.108343,  0.108341 )     4.41612705
  WF centre and spread    2  (  6.929077,  2.867285,  2.867286 )     4.41612705
  Sum of centres and spreads ( 11.099209,  2.975628,  2.975628 )     8.83225411
 
  50000     0.000E+00     0.0000000000        8.8322541055     444.07  <-- CONV
        O_D=      0.0694639 O_OD=      0.0000829 O_TOT=      8.8322541 <-- SPRD
 Delta: O_D=  0.6938894E-16 O_OD=  0.1626303E-18 O_TOT=  0.0000000E+00 <-- DLTA
 ------------------------------------------------------------------------------

 Writing checkpoint file wannier90.chk... done


 Writing checkpoint file wannier90.chk... done


 Writing checkpoint file wannier90.chk... done


 Writing checkpoint file wannier90.chk... done


 Writing checkpoint file wannier90.chk... done


 Writing checkpoint file wannier90.chk... done


 Writing checkpoint file wannier90.chk... done


 Writing checkpoint file wannier90.chk... done


 Writing checkpoint file wannier90.chk... done


 Writing checkpoint file wannier90.chk... done


 Writing checkpoint file wannier90.chk... done


 Writing checkpoint file wannier90.chk... done


 Writing checkpoint file wannier90.chk... done


 Writing checkpoint file wannier90.chk... done


 Writing checkpoint file wannier90.chk... done


 Writing checkpoint file wannier90.chk... done


 Writing checkpoint file wannier90.chk... done


 Writing checkpoint file wannier90.chk... done


 Writing checkpoint file wannier90.chk... done


 Writing checkpoint file wannier90.chk... done


 Writing checkpoint file wannier90.chk... done


 Writing checkpoint file wannier90.chk... done


 Writing checkpoint file wannier90.chk... done


 Writing checkpoint file wannier90.chk... done


 Writing checkpoint file wannier90.chk... done


 Writing checkpoint file wannier90.chk... done


 Writing checkpoint file wannier90.chk... done


 Writing checkpoint file wannier90.chk... done


 Writing checkpoint file wannier90.chk... done


 Writing checkpoint file wannier90.chk... done


 Writing checkpoint file wannier90.chk... done


 Writing checkpoint file wannier90.chk... done


 Writing checkpoint file wannier90.chk... done


 Writing checkpoint file wannier90.chk... done


 Writing checkpoint file wannier90.chk... done


 Writing checkpoint file wannier90.chk... done


 Writing checkpoint file wannier90.chk... done


 Writing checkpoint file wannier90.chk... done


 Writing checkpoint file wannier90.chk... done


 Writing checkpoint file wannier90.chk... done


 Writing checkpoint file wannier90.chk... done


 Writing checkpoint file wannier90.chk... done


 Writing checkpoint file wannier90.chk... done


 Writing checkpoint file wannier90.chk... done


 Writing checkpoint file wannier90.chk... done


 Writing checkpoint file wannier90.chk... done


 Writing checkpoint file wannier90.chk... done


 Writing checkpoint file wannier90.chk... done


 Writing checkpoint file wannier90.chk... done


 Writing checkpoint file wannier90.chk... done


 Writing checkpoint file wannier90.chk... done


 Writing checkpoint file wannier90.chk... done


 Writing checkpoint file wannier90.chk... done


 Writing checkpoint file wannier90.chk... done


 Writing checkpoint file wannier90.chk... done


 Writing checkpoint file wannier90.chk... done


 Writing checkpoint file wannier90.chk... done


 Writing checkpoint file wannier90.chk... done


 Writing checkpoint file wannier90.chk... done


 Writing checkpoint file wannier90.chk... done


 Writing checkpoint file wannier90.chk... done


 Writing checkpoint file wannier90.chk... done


 Writing checkpoint file wannier90.chk... done


 Writing checkpoint file wannier90.chk... done


 Writing checkpoint file wannier90.chk... done


 Writing checkpoint file wannier90.chk... done


 Writing checkpoint file wannier90.chk... done


 Writing checkpoint file wannier90.chk... done


 Writing checkpoint file wannier90.chk... done


 Writing checkpoint file wannier90.chk... done


 Writing checkpoint file wannier90.chk... done


 Writing checkpoint file wannier90.chk... done


 Writing checkpoint file wannier90.chk... done


 Writing checkpoint file wannier90.chk... done


 Writing checkpoint file wannier90.chk... done


 Writing checkpoint file wannier90.chk... done


 Writing checkpoint file wannier90.chk... done


 Writing checkpoint file wannier90.chk... done


 Writing checkpoint file wannier90.chk... done


 Writing checkpoint file wannier90.chk... done


 Writing checkpoint file wannier90.chk... done


 Writing checkpoint file wannier90.chk... done


 Writing checkpoint file wannier90.chk... done


 Writing checkpoint file wannier90.chk... done


 Writing checkpoint file wannier90.chk... done


 Writing checkpoint file wannier90.chk... done


 Writing checkpoint file wannier90.chk... done


 Writing checkpoint file wannier90.chk... done


 Writing checkpoint file wannier90.chk... done


 Writing checkpoint file wannier90.chk... done


 Writing checkpoint file wannier90.chk... done


 Writing checkpoint file wannier90.chk... done


 Writing checkpoint file wannier90.chk... done


 Writing checkpoint file wannier90.chk... done


 Writing checkpoint file wannier90.chk... done


 Writing checkpoint file wannier90.chk... done


 Writing checkpoint file wannier90.chk... done


 Writing checkpoint file wannier90.chk... done


 Writing checkpoint file wannier90.chk... done


 Writing checkpoint file wannier90.chk... done

 Cycle:  60000
  WF centre and spread    1  (  4.170132,  0.108343,  0.108341 )     4.41612705
  WF centre and spread    2  (  6.929077,  2.867285,  2.867286 )     4.41612705
  Sum of centres and spreads ( 11.099209,  2.975628,  2.975628 )     8.83225411
 
  60000     0.000E+00     0.0000000000        8.8322541055     483.52  <-- CONV
        O_D=      0.0694639 O_OD=      0.0000829 O_TOT=      8.8322541 <-- SPRD
 Delta: O_D= -0.4163336E-16 O_OD=  0.9486769E-19 O_TOT=  0.0000000E+00 <-- DLTA
 ------------------------------------------------------------------------------

 Writing checkpoint file wannier90.chk... done


 Writing checkpoint file wannier90.chk... done


 Writing checkpoint file wannier90.chk... done


 Writing checkpoint file wannier90.chk... done


 Writing checkpoint file wannier90.chk... done


 Writing checkpoint file wannier90.chk... done


 Writing checkpoint file wannier90.chk... done


 Writing checkpoint file wannier90.chk... done


 Writing checkpoint file wannier90.chk... done


 Writing checkpoint file wannier90.chk... done


 Writing checkpoint file wannier90.chk... done


 Writing checkpoint file wannier90.chk... done


 Writing checkpoint file wannier90.chk... done


 Writing checkpoint file wannier90.chk... done


 Writing checkpoint file wannier90.chk... done


 Writing checkpoint file wannier90.chk... done


 Writing checkpoint file wannier90.chk... done


 Writing checkpoint file wannier90.chk... done


 Writing checkpoint file wannier90.chk... done


 Writing checkpoint file wannier90.chk... done


 Writing checkpoint file wannier90.chk... done


 Writing checkpoint file wannier90.chk... done


 Writing checkpoint file wannier90.chk... done


 Writing checkpoint file wannier90.chk... done


 Writing checkpoint file wannier90.chk... done


 Writing checkpoint file wannier90.chk... done


 Writing checkpoint file wannier90.chk... done


 Writing checkpoint file wannier90.chk... done


 Writing checkpoint file wannier90.chk... done


 Writing checkpoint file wannier90.chk... done


 Writing checkpoint file wannier90.chk... done


 Writing checkpoint file wannier90.chk... done


 Writing checkpoint file wannier90.chk... done


 Writing checkpoint file wannier90.chk... done


 Writing checkpoint file wannier90.chk... done


 Writing checkpoint file wannier90.chk... done


 Writing checkpoint file wannier90.chk... done


 Writing checkpoint file wannier90.chk... done


 Writing checkpoint file wannier90.chk... done


 Writing checkpoint file wannier90.chk... done


 Writing checkpoint file wannier90.chk... done


 Writing checkpoint file wannier90.chk... done


 Writing checkpoint file wannier90.chk... done


 Writing checkpoint file wannier90.chk... done


 Writing checkpoint file wannier90.chk... done


 Writing checkpoint file wannier90.chk... done


 Writing checkpoint file wannier90.chk... done


 Writing checkpoint file wannier90.chk... done


 Writing checkpoint file wannier90.chk... done


 Writing checkpoint file wannier90.chk... done


 Writing checkpoint file wannier90.chk... done


 Writing checkpoint file wannier90.chk... done


 Writing checkpoint file wannier90.chk... done


 Writing checkpoint file wannier90.chk... done


 Writing checkpoint file wannier90.chk... done


 Writing checkpoint file wannier90.chk... done


 Writing checkpoint file wannier90.chk... done


 Writing checkpoint file wannier90.chk... done


 Writing checkpoint file wannier90.chk... done


 Writing checkpoint file wannier90.chk... done


 Writing checkpoint file wannier90.chk... done


 Writing checkpoint file wannier90.chk... done


 Writing checkpoint file wannier90.chk... done


 Writing checkpoint file wannier90.chk... done


 Writing checkpoint file wannier90.chk... done


 Writing checkpoint file wannier90.chk... done


[...]


 Writing checkpoint file wannier90.chk... done


 Writing checkpoint file wannier90.chk... done


 Writing checkpoint file wannier90.chk... done


 Writing checkpoint file wannier90.chk... done


 Writing checkpoint file wannier90.chk... done


 Writing checkpoint file wannier90.chk... done


 Writing checkpoint file wannier90.chk... done


 Writing checkpoint file wannier90.chk... done


 Writing checkpoint file wannier90.chk... done


 Writing checkpoint file wannier90.chk... done


 Writing checkpoint file wannier90.chk... done


 Writing checkpoint file wannier90.chk... done


 Writing checkpoint file wannier90.chk... done


 Writing checkpoint file wannier90.chk... done


 Writing checkpoint file wannier90.chk... done


 Writing checkpoint file wannier90.chk... done


 Writing checkpoint file wannier90.chk... done


 Writing checkpoint file wannier90.chk... done


 Writing checkpoint file wannier90.chk... done

 Cycle:  70000
  WF centre and spread    1  (  4.170132,  0.108343,  0.108341 )     4.41612705
  WF centre and spread    2  (  6.929077,  2.867285,  2.867286 )     4.41612705
  Sum of centres and spreads ( 11.099209,  2.975628,  2.975628 )     8.83225411
 
  70000     0.000E+00     0.0000000000        8.8322541055     522.73  <-- CONV
        O_D=      0.0694639 O_OD=      0.0000829 O_TOT=      8.8322541 <-- SPRD
 Delta: O_D= -0.4163336E-16 O_OD= -0.2303930E-18 O_TOT=  0.0000000E+00 <-- DLTA
 ------------------------------------------------------------------------------

 Writing checkpoint file wannier90.chk... done


 Writing checkpoint file wannier90.chk... done


 Writing checkpoint file wannier90.chk... done


 Writing checkpoint file wannier90.chk... done


 Writing checkpoint file wannier90.chk... done


 Writing checkpoint file wannier90.chk... done


 Writing checkpoint file wannier90.chk... done


 Writing checkpoint file wannier90.chk... done


 Writing checkpoint file wannier90.chk... done


 Writing checkpoint file wannier90.chk... done


 Writing checkpoint file wannier90.chk... done


 Writing checkpoint file wannier90.chk... done


 Writing checkpoint file wannier90.chk... done


 Writing checkpoint file wannier90.chk... done


 Writing checkpoint file wannier90.chk... done


 Writing checkpoint file wannier90.chk... done


 Writing checkpoint file wannier90.chk... done


 Writing checkpoint file wannier90.chk... done


 Writing checkpoint file wannier90.chk... done


 Writing checkpoint file wannier90.chk... done


 Writing checkpoint file wannier90.chk... done


 Writing checkpoint file wannier90.chk... done


 Writing checkpoint file wannier90.chk... done


 Writing checkpoint file wannier90.chk... done


 Writing checkpoint file wannier90.chk... done


 Writing checkpoint file wannier90.chk... done


 Writing checkpoint file wannier90.chk... done


 Writing checkpoint file wannier90.chk... done


 Writing checkpoint file wannier90.chk... done


 Writing checkpoint file wannier90.chk... done


 Writing checkpoint file wannier90.chk... done


 Writing checkpoint file wannier90.chk... done


 Writing checkpoint file wannier90.chk... done


 Writing checkpoint file wannier90.chk... done


 Writing checkpoint file wannier90.chk... done


 Writing checkpoint file wannier90.chk... done


 Writing checkpoint file wannier90.chk... done


 Writing checkpoint file wannier90.chk... done


 Writing checkpoint file wannier90.chk... done


 Writing checkpoint file wannier90.chk... done


 Writing checkpoint file wannier90.chk... done


 Writing checkpoint file wannier90.chk... done


 Writing checkpoint file wannier90.chk... done


 Writing checkpoint file wannier90.chk... done


 Writing checkpoint file wannier90.chk... done


 Writing checkpoint file wannier90.chk... done


 Writing checkpoint file wannier90.chk... done


 Writing checkpoint file wannier90.chk... done


 Writing checkpoint file wannier90.chk... done


 Writing checkpoint file wannier90.chk... done


 Writing checkpoint file wannier90.chk... done


 Writing checkpoint file wannier90.chk... done


 Writing checkpoint file wannier90.chk... done


 Writing checkpoint file wannier90.chk... done


 Writing checkpoint file wannier90.chk... done


 Writing checkpoint file wannier90.chk... done


 Writing checkpoint file wannier90.chk... done


 Writing checkpoint file wannier90.chk... done


 Writing checkpoint file wannier90.chk... done


 Writing checkpoint file wannier90.chk... done


 Writing checkpoint file wannier90.chk... done


 Writing checkpoint file wannier90.chk... done


 Writing checkpoint file wannier90.chk... done


 Writing checkpoint file wannier90.chk... done


 Writing checkpoint file wannier90.chk... done


 Writing checkpoint file wannier90.chk... done


 Writing checkpoint file wannier90.chk... done


 Writing checkpoint file wannier90.chk... done


 Writing checkpoint file wannier90.chk... done


 Writing checkpoint file wannier90.chk... done


 Writing checkpoint file wannier90.chk... done


 Writing checkpoint file wannier90.chk... done


 Writing checkpoint file wannier90.chk... done


 Writing checkpoint file wannier90.chk... done


 Writing checkpoint file wannier90.chk... done


 Writing checkpoint file wannier90.chk... done


 Writing checkpoint file wannier90.chk... done


 Writing checkpoint file wannier90.chk... done


 Writing checkpoint file wannier90.chk... done


 Writing checkpoint file wannier90.chk... done


 Writing checkpoint file wannier90.chk... done


 Writing checkpoint file wannier90.chk... done


 Writing checkpoint file wannier90.chk... done


 Writing checkpoint file wannier90.chk... done


 Writing checkpoint file wannier90.chk... done


 Writing checkpoint file wannier90.chk... done


 Writing checkpoint file wannier90.chk... done


 Writing checkpoint file wannier90.chk... done


 Writing checkpoint file wannier90.chk... done


 Writing checkpoint file wannier90.chk... done


 Writing checkpoint file wannier90.chk... done


 Writing checkpoint file wannier90.chk... done


 Writing checkpoint file wannier90.chk... done


 Writing checkpoint file wannier90.chk... done


 Writing checkpoint file wannier90.chk... done


 Writing checkpoint file wannier90.chk... done


 Writing checkpoint file wannier90.chk... done


 Writing checkpoint file wannier90.chk... done


 Writing checkpoint file wannier90.chk... done


 Writing checkpoint file wannier90.chk... done

 Cycle:  80000
  WF centre and spread    1  (  4.170132,  0.108343,  0.108341 )     4.41612705
  WF centre and spread    2  (  6.929077,  2.867285,  2.867286 )     4.41612705
  Sum of centres and spreads ( 11.099209,  2.975628,  2.975628 )     8.83225411
 
  80000     0.000E+00     0.0000000000        8.8322541055     561.28  <-- CONV
        O_D=      0.0694639 O_OD=      0.0000829 O_TOT=      8.8322541 <-- SPRD
 Delta: O_D= -0.4163336E-16 O_OD=  0.1219727E-18 O_TOT=  0.0000000E+00 <-- DLTA
 ------------------------------------------------------------------------------

 Writing checkpoint file wannier90.chk... done


 Writing checkpoint file wannier90.chk... done


 Writing checkpoint file wannier90.chk... done


 Writing checkpoint file wannier90.chk... done


 Writing checkpoint file wannier90.chk... done


 Writing checkpoint file wannier90.chk... done


 Writing checkpoint file wannier90.chk... done


 Writing checkpoint file wannier90.chk... done


 Writing checkpoint file wannier90.chk... done


 Writing checkpoint file wannier90.chk... done


 Writing checkpoint file wannier90.chk... done


 Writing checkpoint file wannier90.chk... done


 Writing checkpoint file wannier90.chk... done


 Writing checkpoint file wannier90.chk... done


 Writing checkpoint file wannier90.chk... done


 Writing checkpoint file wannier90.chk... done


 Writing checkpoint file wannier90.chk... done


 Writing checkpoint file wannier90.chk... done


 Writing checkpoint file wannier90.chk... done


 Writing checkpoint file wannier90.chk... done


 Writing checkpoint file wannier90.chk... done


 Writing checkpoint file wannier90.chk... done


 Writing checkpoint file wannier90.chk... done


 Writing checkpoint file wannier90.chk... done


 Writing checkpoint file wannier90.chk... done


 Writing checkpoint file wannier90.chk... done


 Writing checkpoint file wannier90.chk... done


 Writing checkpoint file wannier90.chk... done


 Writing checkpoint file wannier90.chk... done


 Writing checkpoint file wannier90.chk... done


 Writing checkpoint file wannier90.chk... done


 Writing checkpoint file wannier90.chk... done


 Writing checkpoint file wannier90.chk... done


 Writing checkpoint file wannier90.chk... done


 Writing checkpoint file wannier90.chk... done


 Writing checkpoint file wannier90.chk... done


 Writing checkpoint file wannier90.chk... done


 Writing checkpoint file wannier90.chk... done


 Writing checkpoint file wannier90.chk... done


 Writing checkpoint file wannier90.chk... done


 Writing checkpoint file wannier90.chk... done


 Writing checkpoint file wannier90.chk... done


 Writing checkpoint file wannier90.chk... done


 Writing checkpoint file wannier90.chk... done


 Writing checkpoint file wannier90.chk... done


 Writing checkpoint file wannier90.chk... done


 Writing checkpoint file wannier90.chk... done


 Writing checkpoint file wannier90.chk... done


 Writing checkpoint file wannier90.chk... done


 Writing checkpoint file wannier90.chk... done


 Writing checkpoint file wannier90.chk... done


 Writing checkpoint file wannier90.chk... done


 Writing checkpoint file wannier90.chk... done


 Writing checkpoint file wannier90.chk... done


 Writing checkpoint file wannier90.chk... done


 Writing checkpoint file wannier90.chk... done


 Writing checkpoint file wannier90.chk... done


 Writing checkpoint file wannier90.chk... done


 Writing checkpoint file wannier90.chk... done


 Writing checkpoint file wannier90.chk... done


 Writing checkpoint file wannier90.chk... done


 Writing checkpoint file wannier90.chk... done


 Writing checkpoint file wannier90.chk... done


 Writing checkpoint file wannier90.chk... done


 Writing checkpoint file wannier90.chk... done


 Writing checkpoint file wannier90.chk... done


 Writing checkpoint file wannier90.chk... done


 Writing checkpoint file wannier90.chk... done


 Writing checkpoint file wannier90.chk... done


 Writing checkpoint file wannier90.chk... done


 Writing checkpoint file wannier90.chk... done


 Writing checkpoint file wannier90.chk... done


 Writing checkpoint file wannier90.chk... done


 Writing checkpoint file wannier90.chk... done


 Writing checkpoint file wannier90.chk... done


 Writing checkpoint file wannier90.chk... done


 Writing checkpoint file wannier90.chk... done


 Writing checkpoint file wannier90.chk... done


 Writing checkpoint file wannier90.chk... done


 Writing checkpoint file wannier90.chk... done


 Writing checkpoint file wannier90.chk... done


 Writing checkpoint file wannier90.chk... done


 Writing checkpoint file wannier90.chk... done


 Writing checkpoint file wannier90.chk... done


 Writing checkpoint file wannier90.chk... done


 Writing checkpoint file wannier90.chk... done


 Writing checkpoint file wannier90.chk... done


 Writing checkpoint file wannier90.chk... done


 Writing checkpoint file wannier90.chk... done


 Writing checkpoint file wannier90.chk... done


 Writing checkpoint file wannier90.chk... done


 Writing checkpoint file wannier90.chk... done


 Writing checkpoint file wannier90.chk... done


 Writing checkpoint file wannier90.chk... done


 Writing checkpoint file wannier90.chk... done


 Writing checkpoint file wannier90.chk... done


 Writing checkpoint file wannier90.chk... done


 Writing checkpoint file wannier90.chk... done


 Writing checkpoint file wannier90.chk... done


 Writing checkpoint file wannier90.chk... done

 Cycle:  90000
  WF centre and spread    1  (  4.170132,  0.108343,  0.108341 )     4.41612705
  WF centre and spread    2  (  6.929077,  2.867285,  2.867286 )     4.41612705
  Sum of centres and spreads ( 11.099209,  2.975628,  2.975628 )     8.83225411
 
  90000     0.000E+00     0.0000000000        8.8322541055     599.72  <-- CONV
        O_D=      0.0694639 O_OD=      0.0000829 O_TOT=      8.8322541 <-- SPRD
 Delta: O_D=  0.4163336E-16 O_OD= -0.1897354E-18 O_TOT=  0.0000000E+00 <-- DLTA
 ------------------------------------------------------------------------------

 Writing checkpoint file wannier90.chk... done


 Writing checkpoint file wannier90.chk... done


 Writing checkpoint file wannier90.chk... done


 Writing checkpoint file wannier90.chk... done


 Writing checkpoint file wannier90.chk... done


 Writing checkpoint file wannier90.chk... done


 Writing checkpoint file wannier90.chk... done


 Writing checkpoint file wannier90.chk... done


 Writing checkpoint file wannier90.chk... done


 Writing checkpoint file wannier90.chk... done


 Writing checkpoint file wannier90.chk... done


 Writing checkpoint file wannier90.chk... done


 Writing checkpoint file wannier90.chk... done


 Writing checkpoint file wannier90.chk... done


 Writing checkpoint file wannier90.chk... done


 Writing checkpoint file wannier90.chk... done


 Writing checkpoint file wannier90.chk... done


 Writing checkpoint file wannier90.chk... done


 Writing checkpoint file wannier90.chk... done


 Writing checkpoint file wannier90.chk... done


 Writing checkpoint file wannier90.chk... done


 Writing checkpoint file wannier90.chk... done


 Writing checkpoint file wannier90.chk... done


 Writing checkpoint file wannier90.chk... done


 Writing checkpoint file wannier90.chk... done


 Writing checkpoint file wannier90.chk... done


 Writing checkpoint file wannier90.chk... done


 Writing checkpoint file wannier90.chk... done


 Writing checkpoint file wannier90.chk... done


 Writing checkpoint file wannier90.chk... done


 Writing checkpoint file wannier90.chk... done


 Writing checkpoint file wannier90.chk... done


 Writing checkpoint file wannier90.chk... done


 Writing checkpoint file wannier90.chk... done


 Writing checkpoint file wannier90.chk... done


 Writing checkpoint file wannier90.chk... done


 Writing checkpoint file wannier90.chk... done


 Writing checkpoint file wannier90.chk... done


 Writing checkpoint file wannier90.chk... done


 Writing checkpoint file wannier90.chk... done


 Writing checkpoint file wannier90.chk... done


 Writing checkpoint file wannier90.chk... done


 Writing checkpoint file wannier90.chk... done


 Writing checkpoint file wannier90.chk... done


 Writing checkpoint file wannier90.chk... done


 Writing checkpoint file wannier90.chk... done


 Writing checkpoint file wannier90.chk... done


 Writing checkpoint file wannier90.chk... done


 Writing checkpoint file wannier90.chk... done


 Writing checkpoint file wannier90.chk... done


 Writing checkpoint file wannier90.chk... done


 Writing checkpoint file wannier90.chk... done


 Writing checkpoint file wannier90.chk... done


 Writing checkpoint file wannier90.chk... done


 Writing checkpoint file wannier90.chk... done


 Writing checkpoint file wannier90.chk... done


 Writing checkpoint file wannier90.chk... done


 Writing checkpoint file wannier90.chk... done


 Writing checkpoint file wannier90.chk... done


 Writing checkpoint file wannier90.chk... done


 Writing checkpoint file wannier90.chk... done


 Writing checkpoint file wannier90.chk... done


 Writing checkpoint file wannier90.chk... done


 Writing checkpoint file wannier90.chk... done


 Writing checkpoint file wannier90.chk... done


 Writing checkpoint file wannier90.chk... done


 Writing checkpoint file wannier90.chk... done


 Writing checkpoint file wannier90.chk... done


 Writing checkpoint file wannier90.chk... done


 Writing checkpoint file wannier90.chk... done


 Writing checkpoint file wannier90.chk... done


 Writing checkpoint file wannier90.chk... done


 Writing checkpoint file wannier90.chk... done


 Writing checkpoint file wannier90.chk... done


 Writing checkpoint file wannier90.chk... done


 Writing checkpoint file wannier90.chk... done


 Writing checkpoint file wannier90.chk... done


 Writing checkpoint file wannier90.chk... done


 Writing checkpoint file wannier90.chk... done


 Writing checkpoint file wannier90.chk... done


 Writing checkpoint file wannier90.chk... done


 Writing checkpoint file wannier90.chk... done


 Writing checkpoint file wannier90.chk... done


 Writing checkpoint file wannier90.chk... done


 Writing checkpoint file wannier90.chk... done


 Writing checkpoint file wannier90.chk... done


 Writing checkpoint file wannier90.chk... done


 Writing checkpoint file wannier90.chk... done


 Writing checkpoint file wannier90.chk... done


 Writing checkpoint file wannier90.chk... done


 Writing checkpoint file wannier90.chk... done


 Writing checkpoint file wannier90.chk... done


 Writing checkpoint file wannier90.chk... done


 Writing checkpoint file wannier90.chk... done


 Writing checkpoint file wannier90.chk... done


 Writing checkpoint file wannier90.chk... done


 Writing checkpoint file wannier90.chk... done


 Writing checkpoint file wannier90.chk... done


 Writing checkpoint file wannier90.chk... done


 Writing checkpoint file wannier90.chk... done

 Cycle: 100000
  WF centre and spread    1  (  4.170132,  0.108343,  0.108341 )     4.41612705
  WF centre and spread    2  (  6.929077,  2.867285,  2.867286 )     4.41612705
  Sum of centres and spreads ( 11.099209,  2.975628,  2.975628 )     8.83225411
 
 100000     0.000E+00     0.0000000000        8.8322541055     638.62  <-- CONV
        O_D=      0.0694639 O_OD=      0.0000829 O_TOT=      8.8322541 <-- SPRD
 Delta: O_D=  0.0000000E+00 O_OD= -0.4065758E-19 O_TOT=  0.0000000E+00 <-- DLTA
 ------------------------------------------------------------------------------

 Writing checkpoint file wannier90.chk... done

 Final State
  WF centre and spread    1  (  4.170132,  0.108343,  0.108341 )     4.41612705
  WF centre and spread    2  (  6.929077,  2.867285,  2.867286 )     4.41612705
  Sum of centres and spreads ( 11.099209,  2.975628,  2.975628 )     8.83225411
 
         Spreads (Ang^2)       Omega I      =     8.762707300
        ================       Omega D      =     0.069463925
                               Omega OD     =     0.000082880
    Final Spread (Ang^2)       Omega Total  =     8.832254105
 ------------------------------------------------------------------------------
  Wannier centres written to file wannier90_centres.xyz

 Writing checkpoint file wannier90.chk... done

 Time for wannierise          386.796 (sec)
 *---------------------------------------------------------------------------*
 |                               PLOTTING                                    |
 *---------------------------------------------------------------------------*
 
 
 Calculating interpolated band-structure
 
 Time to calculate interpolated band structure       0.020 (sec)
 
 Time for plotting              0.037 (sec)
 Total Execution Time         405.785 (sec)

 *===========================================================================*
 |                             TIMING INFORMATION                            |
 *===========================================================================*
 |    Tag                                                Ncalls      Time (s)|
 |---------------------------------------------------------------------------|
 |kmesh: get                                        :         2         0.227|
 |dis: main                                         :         1         0.327|
 |wann: main                                        :         1       386.794|
 |plot: main                                        :         1         0.037|
 *---------------------------------------------------------------------------*
 
 All done: wannier90 exiting
