
     Program PWSCF v.7.3.1 starts on  8May2025 at 10:36:12 

     This program is part of the open-source Quantum ESPRESSO suite
     for quantum simulation of materials; please cite
         "P. Giannozzi et al., J. Phys.:Condens. Matter 21 395502 (2009);
         "P. Giannozzi et al., J. Phys.:Condens. Matter 29 465901 (2017);
         "P. Giannozzi et al., J. Chem. Phys. 152 154105 (2020);
          URL http://www.quantum-espresso.org", 
     in publications or presentations arising from this work. More details at
     http://www.quantum-espresso.org/quote

     Parallel version (MPI & OpenMP), running on     384 processor cores
     Number of MPI processes:               384
     Threads/MPI process:                     1

     MPI processes distributed on     2 nodes
     341473 MiB available memory on the printing compute node when the environment starts

     Waiting for input...
     Reading input from standard input
Warning: card &CELL ignored
Warning: card / ignored
Warning: card &FCP ignored
Warning: card / ignored
Warning: card &RISM ignored
Warning: card / ignored

     Current dimensions of program PWSCF are:
     Max number of different atomic species (ntypx) = 10
     Max number of k-points (npk) =  40000
     Max angular momentum in pseudopotentials (lmaxx) =  4

     File ./out/Nb3I8.update deleted, as requested

     File ./out/Nb3I8.md deleted, as requested

     File ./out/Nb3I8.bfgs deleted, as requested

     IMPORTANT: XC functional enforced from input :
     Exchange-correlation= PBE
                           (   1   4   3   4   0   0   0)
     Any further DFT definition will be discarded
     Please, verify this is what you really want

     Message from routine setup:
     using ibrav=0 with symmetry is DISCOURAGED, use correct ibrav instead
     Message from routine setup:
     Dynamics, you should have no symmetries

     K-points division:     npool     =      16
     R & G space division:  proc/nbgrp/npool/nimage =      24
     Subspace diagonalization in iterative solution of the eigenvalue problem:
     a serial algorithm will be used

     Message from routine divide_et_impera:
     suboptimal parallelization: some nodes have no k-points

     Parallelization info
     --------------------
     sticks:   dense  smooth     PW     G-vecs:    dense   smooth      PW
     Min         238     238     63                65816    65816    8973
     Max         239     239     64                65835    65835    8984
     Sum        5731    5731   1519              1579823  1579823  215427

     Using Slab Decomposition



     bravais-lattice index     =            0
     lattice parameter (alat)  =      14.4200  a.u.
     unit-cell volume          =   11694.9391 (a.u.)^3
     number of atoms/cell      =           11
     number of atomic types    =            2
     number of electrons       =       175.00
     number of Kohn-Sham states=          106
     kinetic-energy cutoff     =     100.0000  Ry
     charge density cutoff     =     400.0000  Ry
     scf convergence threshold =      1.0E-12
     mixing beta               =       0.7000
     number of iterations used =            8  plain     mixing
     energy convergence thresh.=      1.0E-04
     force convergence thresh. =      1.0E-06
     Exchange-correlation= PBE
                           (   1   4   3   4   0   0   0)
     nstep                     =           50


     celldm(1)=  14.419985  celldm(2)=   0.000000  celldm(3)=   0.000000
     celldm(4)=   0.000000  celldm(5)=   0.000000  celldm(6)=   0.000000

     crystal axes: (cart. coord. in units of alat)
               a(1) = (   0.866025   0.500000   0.000000 )  
               a(2) = (  -0.866025   0.500000   0.000000 )  
               a(3) = (   0.000000   0.000000   4.503735 )  

     reciprocal axes: (cart. coord. in units 2 pi/alat)
               b(1) = (  0.577350  1.000000 -0.000000 )  
               b(2) = ( -0.577350  1.000000  0.000000 )  
               b(3) = (  0.000000 -0.000000  0.222038 )  


     PseudoPot. # 1 for Nb read from file:
     /scratch-shared/mroesner/Nb3X8_cDFPT/pp/Nb_ONCV_PBE-1.2.upf
     MD5 check sum: 2c750ac0b6910ff4cf0ab5f6c4124a64
     Pseudo is Norm-conserving, Zval = 13.0
     Generated using ONCVPSP code by D. R. Hamann
     Using radial grid of  602 points,  6 beta functions with: 
                l(1) =   0
                l(2) =   0
                l(3) =   1
                l(4) =   1
                l(5) =   2
                l(6) =   2

     PseudoPot. # 2 for I  read from file:
     /scratch-shared/mroesner/Nb3X8_cDFPT/pp/I_ONCV_PBE-1.2.upf
     MD5 check sum: 8277ef51204d8074ead4596f3b37a2aa
     Pseudo is Norm-conserving, Zval = 17.0
     Generated using ONCVPSP code by D. R. Hamann
     Using radial grid of  602 points,  6 beta functions with: 
                l(1) =   0
                l(2) =   0
                l(3) =   1
                l(4) =   1
                l(5) =   2
                l(6) =   2

     atomic species   valence    mass     pseudopotential
     Nb               13.00    92.90637     Nb( 1.00)
     I                17.00   126.90447     I ( 1.00)

      6 Sym. Ops. (no inversion) found


                                    s                        frac. trans.

      isym =  1     identity                                     

 cryst.   s( 1) = (     1          0          0      )
                  (     0          1          0      )
                  (     0          0          1      )

 cart.    s( 1) = (  1.0000000  0.0000000  0.0000000 )
                  (  0.0000000  1.0000000  0.0000000 )
                  (  0.0000000  0.0000000  1.0000000 )


      isym =  2     120 deg rotation - cryst. axis [0,0,1]       

 cryst.   s( 2) = (     0          1          0      )
                  (    -1         -1          0      )
                  (     0          0          1      )

 cart.    s( 2) = ( -0.5000000 -0.8660254  0.0000000 )
                  (  0.8660254 -0.5000000  0.0000000 )
                  (  0.0000000  0.0000000  1.0000000 )


      isym =  3     120 deg rotation - cryst. axis [0,0,-1]      

 cryst.   s( 3) = (    -1         -1          0      )
                  (     1          0          0      )
                  (     0          0          1      )

 cart.    s( 3) = ( -0.5000000  0.8660254  0.0000000 )
                  ( -0.8660254 -0.5000000  0.0000000 )
                  (  0.0000000  0.0000000  1.0000000 )


      isym =  4     inv. 180 deg rotation - cart. axis [0,1,0]   

 cryst.   s( 4) = (     0         -1          0      )
                  (    -1          0          0      )
                  (     0          0          1      )

 cart.    s( 4) = (  1.0000000 -0.0000000  0.0000000 )
                  (  0.0000000 -1.0000000  0.0000000 )
                  (  0.0000000  0.0000000  1.0000000 )


      isym =  5     inv. 180 deg rotation - cryst. axis [1,-1,0] 

 cryst.   s( 5) = (     1          1          0      )
                  (     0         -1          0      )
                  (     0          0          1      )

 cart.    s( 5) = ( -0.5000000  0.8660254  0.0000000 )
                  (  0.8660254  0.5000000  0.0000000 )
                  (  0.0000000  0.0000000  1.0000000 )


      isym =  6     inv. 180 deg rotation - cryst. axis [2,1,0]  

 cryst.   s( 6) = (    -1          0          0      )
                  (     1          1          0      )
                  (     0          0          1      )

 cart.    s( 6) = ( -0.5000000 -0.8660254  0.0000000 )
                  ( -0.8660254  0.5000000  0.0000000 )
                  (  0.0000000  0.0000000  1.0000000 )


   Cartesian axes

     site n.     atom                  positions (alat units)
         1        Nb     tau(   1) = (   0.6389149   0.5000000   0.4477546  )
         2        Nb     tau(   2) = (   0.1135552   0.8033165   0.4477546  )
         3        Nb     tau(   3) = (   0.1135552   0.1966835   0.4477546  )
         4        I      tau(   4) = (  -0.5777648   0.5000000   0.1969996  )
         5        I      tau(   5) = (  -0.1441303   0.2496410   0.1969996  )
         6        I      tau(   6) = (  -0.1441303   0.7503590   0.1969996  )
         7        I      tau(   7) = (   0.2886751   0.5000000   0.2557556  )
         8        I      tau(   8) = (  -0.0050724   0.5000000   0.6497473  )
         9        I      tau(   9) = (  -0.4304765   0.7456071   0.6497473  )
        10        I      tau(  10) = (  -0.4304765   0.2543929   0.6497473  )
        11        I      tau(  11) = (  -0.8660254   0.5000000   0.7304268  )

     --------------------------------------------
     DFT-D3 Dispersion Correction (no 3-body):
     --------------------------------------------
       Reference C6 values for interpolation: 

         atom   Coordination number   C6
         Nb         0.000          2950.50
         Nb         1.954          1161.16
         Nb         2.922           857.79
         I          0.000           703.93
         I          0.997           717.00

       Values used:

         atom   Coordination number  R0_AB[au]  C6      C8
         Nb         7.889            3.647    857.79 111659.18
         Nb         7.889            3.647    857.79 111659.18
         Nb         7.889            3.647    857.79 111659.18
         I          3.584            3.532    717.00  65856.01
         I          3.584            3.532    717.00  65856.01
         I          3.584            3.532    717.00  65856.01
         I          4.863            3.532    717.00  65856.01
         I          3.796            3.532    717.00  65856.01
         I          3.796            3.532    717.00  65856.01
         I          3.796            3.532    717.00  65856.01
         I          4.206            3.532    717.00  65856.01

         Molecular C6 ( Ry / a.u.^6 ) =     90972.34


   Crystallographic axes

     site n.     atom                  positions (cryst. coord.)
         1        Nb     tau(   1) = (  0.8688777  0.1311223  0.0994185  )
         2        Nb     tau(   2) = (  0.8688777  0.7377554  0.0994185  )
         3        Nb     tau(   3) = (  0.2622446  0.1311223  0.0994185  )
         4        I      tau(   4) = (  0.1664273  0.8335727  0.0437414  )
         5        I      tau(   5) = (  0.1664273  0.3328546  0.0437414  )
         6        I      tau(   6) = (  0.6671454  0.8335727  0.0437414  )
         7        I      tau(   7) = (  0.6666667  0.3333333  0.0567874  )
         8        I      tau(   8) = (  0.4970714  0.5029286  0.1442685  )
         9        I      tau(   9) = (  0.4970714  0.9941429  0.1442685  )
        10        I      tau(  10) = (  0.0058571  0.5029286  0.1442685  )
        11        I      tau(  11) = ( -0.0000000  1.0000000  0.1621824  )

     number of k points=     7  Marzari-Vanderbilt smearing, width (Ry)=  0.0037
                       cart. coord. in units 2pi/alat
        k(    1) = (   0.0000000   0.0000000   0.0000000), wk =   0.0555556
        k(    2) = (  -0.0962250   0.1666667   0.0000000), wk =   0.3333333
        k(    3) = (  -0.1924501   0.3333333   0.0000000), wk =   0.3333333
        k(    4) = (   0.2886751  -0.5000000   0.0000000), wk =   0.1666667
        k(    5) = (   0.0000000   0.3333333   0.0000000), wk =   0.3333333
        k(    6) = (  -0.0962250   0.5000000   0.0000000), wk =   0.6666667
        k(    7) = (   0.0000000   0.6666667   0.0000000), wk =   0.1111111

                       cryst. coord.
        k(    1) = (   0.0000000   0.0000000   0.0000000), wk =   0.0555556
        k(    2) = (   0.0000000   0.1666667   0.0000000), wk =   0.3333333
        k(    3) = (   0.0000000   0.3333333   0.0000000), wk =   0.3333333
        k(    4) = (   0.0000000  -0.5000000   0.0000000), wk =   0.1666667
        k(    5) = (   0.1666667   0.1666667   0.0000000), wk =   0.3333333
        k(    6) = (   0.1666667   0.3333333   0.0000000), wk =   0.6666667
        k(    7) = (   0.3333333   0.3333333   0.0000000), wk =   0.1111111

     Dense  grid:  1579823 G-vectors     FFT dimensions: (  96,  96, 432)

     Dynamical RAM for                 wfc:      13.31 MB

     Dynamical RAM for     wfc (w. buffer):      13.31 MB

     Dynamical RAM for           str. fact:       2.01 MB

     Dynamical RAM for           local pot:       0.00 MB

     Dynamical RAM for          nlocal pot:      24.86 MB

     Dynamical RAM for                qrad:       3.21 MB

     Dynamical RAM for          rho,v,vnew:       6.81 MB

     Dynamical RAM for               rhoin:       2.27 MB

     Dynamical RAM for            rho*nmix:      16.07 MB

     Dynamical RAM for           G-vectors:       4.27 MB

     Dynamical RAM for          h,s,v(r/c):       2.06 MB

     Dynamical RAM for          <psi|beta>:       0.32 MB

     Dynamical RAM for                 psi:      26.62 MB

     Dynamical RAM for                hpsi:      26.62 MB

     Dynamical RAM for      wfcinit/wfcrot:      26.87 MB

     Estimated static dynamical RAM per process >      66.08 MB

     Estimated max dynamical RAM per process >     137.75 MB

     Estimated total dynamical RAM >      46.01 GB

     Initial potential from superposition of free atoms

     starting charge     174.4575, renormalised to     175.0000

     negative rho (up, down):  2.206E-03 0.000E+00
     Starting wfcs are random

     total cpu time spent up to now is        5.3 secs

     per-process dynamical memory:   226.1 Mb

     Self-consistent Calculation

     iteration #  1     ecut=   100.00 Ry     beta= 0.70
     Davidson diagonalization with overlap

---- Real-time Memory Report at c_bands before calling an iterative solver
           266 MiB given to the printing process from OS
           220 MiB allocation reported by mallinfo(arena+hblkhd)
        321008 MiB available memory on the node where the printing process lives
------------------
     ethr =  1.00E-02,  avg # of iterations = 16.3

     Threshold (ethr) on eigenvalues was too large:
     Diagonalizing with lowered threshold

     Davidson diagonalization with overlap

---- Real-time Memory Report at c_bands before calling an iterative solver
           312 MiB given to the printing process from OS
           220 MiB allocation reported by mallinfo(arena+hblkhd)
        321849 MiB available memory on the node where the printing process lives
------------------
     ethr =  3.77E-04,  avg # of iterations =  7.7

     negative rho (up, down):  3.404E-04 0.000E+00

     total cpu time spent up to now is       16.5 secs

     total energy              =   -1932.03036736 Ry
     estimated scf accuracy    <       0.67910955 Ry

     iteration #  2     ecut=   100.00 Ry     beta= 0.70
     Davidson diagonalization with overlap

---- Real-time Memory Report at c_bands before calling an iterative solver
           312 MiB given to the printing process from OS
           225 MiB allocation reported by mallinfo(arena+hblkhd)
        321819 MiB available memory on the node where the printing process lives
------------------
     ethr =  3.88E-04,  avg # of iterations = 14.4

     negative rho (up, down):  1.653E-04 0.000E+00

     total cpu time spent up to now is       20.4 secs

     total energy              =   -1931.81261137 Ry
     estimated scf accuracy    <       4.19202490 Ry

     iteration #  3     ecut=   100.00 Ry     beta= 0.70
     Davidson diagonalization with overlap

---- Real-time Memory Report at c_bands before calling an iterative solver
           314 MiB given to the printing process from OS
           227 MiB allocation reported by mallinfo(arena+hblkhd)
        321689 MiB available memory on the node where the printing process lives
------------------
     ethr =  3.88E-04,  avg # of iterations = 13.3

     negative rho (up, down):  7.643E-05 0.000E+00

     total cpu time spent up to now is       24.2 secs

     total energy              =   -1932.41749200 Ry
     estimated scf accuracy    <       0.03449296 Ry

     iteration #  4     ecut=   100.00 Ry     beta= 0.70
     Davidson diagonalization with overlap

---- Real-time Memory Report at c_bands before calling an iterative solver
           316 MiB given to the printing process from OS
           229 MiB allocation reported by mallinfo(arena+hblkhd)
        321674 MiB available memory on the node where the printing process lives
------------------
     ethr =  1.97E-05,  avg # of iterations = 13.7

     negative rho (up, down):  4.813E-05 0.000E+00

     total cpu time spent up to now is       27.8 secs

     total energy              =   -1932.42118609 Ry
     estimated scf accuracy    <       0.03431191 Ry

     iteration #  5     ecut=   100.00 Ry     beta= 0.70
     Davidson diagonalization with overlap

---- Real-time Memory Report at c_bands before calling an iterative solver
           319 MiB given to the printing process from OS
           231 MiB allocation reported by mallinfo(arena+hblkhd)
        321556 MiB available memory on the node where the printing process lives
------------------
     ethr =  1.96E-05,  avg # of iterations = 11.7

     negative rho (up, down):  1.523E-05 0.000E+00

     total cpu time spent up to now is       31.1 secs

     total energy              =   -1932.42705512 Ry
     estimated scf accuracy    <       0.01222942 Ry

     iteration #  6     ecut=   100.00 Ry     beta= 0.70
     Davidson diagonalization with overlap

---- Real-time Memory Report at c_bands before calling an iterative solver
           321 MiB given to the printing process from OS
           233 MiB allocation reported by mallinfo(arena+hblkhd)
        321509 MiB available memory on the node where the printing process lives
------------------
     ethr =  6.99E-06,  avg # of iterations = 10.0

     negative rho (up, down):  1.674E-06 0.000E+00

     total cpu time spent up to now is       33.9 secs

     total energy              =   -1932.42885890 Ry
     estimated scf accuracy    <       0.00038081 Ry

     iteration #  7     ecut=   100.00 Ry     beta= 0.70
     Davidson diagonalization with overlap

---- Real-time Memory Report at c_bands before calling an iterative solver
           323 MiB given to the printing process from OS
           235 MiB allocation reported by mallinfo(arena+hblkhd)
        321403 MiB available memory on the node where the printing process lives
------------------
     ethr =  2.18E-07,  avg # of iterations = 14.6

     negative rho (up, down):  1.401E-07 0.000E+00

     total cpu time spent up to now is       37.7 secs

     total energy              =   -1932.42893503 Ry
     estimated scf accuracy    <       0.00003341 Ry

     iteration #  8     ecut=   100.00 Ry     beta= 0.70
     Davidson diagonalization with overlap

---- Real-time Memory Report at c_bands before calling an iterative solver
           325 MiB given to the printing process from OS
           237 MiB allocation reported by mallinfo(arena+hblkhd)
        321429 MiB available memory on the node where the printing process lives
------------------
     ethr =  1.91E-08,  avg # of iterations = 13.1

     total cpu time spent up to now is       41.2 secs

     total energy              =   -1932.42894464 Ry
     estimated scf accuracy    <       0.00000434 Ry

     iteration #  9     ecut=   100.00 Ry     beta= 0.70
     Davidson diagonalization with overlap

---- Real-time Memory Report at c_bands before calling an iterative solver
           329 MiB given to the printing process from OS
           239 MiB allocation reported by mallinfo(arena+hblkhd)
        321364 MiB available memory on the node where the printing process lives
------------------
     ethr =  2.48E-09,  avg # of iterations = 14.9

     negative rho (up, down):  1.293E-08 0.000E+00

     total cpu time spent up to now is       44.7 secs

     total energy              =   -1932.42894565 Ry
     estimated scf accuracy    <       0.00000037 Ry

     iteration # 10     ecut=   100.00 Ry     beta= 0.70
     Davidson diagonalization with overlap

---- Real-time Memory Report at c_bands before calling an iterative solver
           331 MiB given to the printing process from OS
           241 MiB allocation reported by mallinfo(arena+hblkhd)
        321356 MiB available memory on the node where the printing process lives
------------------
     ethr =  2.11E-10,  avg # of iterations = 16.0

     negative rho (up, down):  1.377E-08 0.000E+00

     total cpu time spent up to now is       48.3 secs

     total energy              =   -1932.42894574 Ry
     estimated scf accuracy    <       0.00000002 Ry

     iteration # 11     ecut=   100.00 Ry     beta= 0.70
     Davidson diagonalization with overlap

---- Real-time Memory Report at c_bands before calling an iterative solver
           333 MiB given to the printing process from OS
           241 MiB allocation reported by mallinfo(arena+hblkhd)
        321342 MiB available memory on the node where the printing process lives
------------------
     c_bands:  2 eigenvalues not converged
     ethr =  1.38E-11,  avg # of iterations = 19.9

     total cpu time spent up to now is       52.3 secs

     total energy              =   -1932.42894575 Ry
     estimated scf accuracy    <          3.7E-09 Ry

     iteration # 12     ecut=   100.00 Ry     beta= 0.70
     Davidson diagonalization with overlap

---- Real-time Memory Report at c_bands before calling an iterative solver
           333 MiB given to the printing process from OS
           241 MiB allocation reported by mallinfo(arena+hblkhd)
        321343 MiB available memory on the node where the printing process lives
------------------
     c_bands:  1 eigenvalues not converged
     ethr =  2.10E-12,  avg # of iterations = 15.6

     total cpu time spent up to now is       55.8 secs

     total energy              =   -1932.42894575 Ry
     estimated scf accuracy    <          3.7E-10 Ry

     iteration # 13     ecut=   100.00 Ry     beta= 0.70
     Davidson diagonalization with overlap

---- Real-time Memory Report at c_bands before calling an iterative solver
           333 MiB given to the printing process from OS
           241 MiB allocation reported by mallinfo(arena+hblkhd)
        321327 MiB available memory on the node where the printing process lives
------------------
     c_bands:  1 eigenvalues not converged
     ethr =  2.11E-13,  avg # of iterations = 18.4

     total cpu time spent up to now is       59.7 secs

     total energy              =   -1932.42894575 Ry
     estimated scf accuracy    <          6.9E-10 Ry

     iteration # 14     ecut=   100.00 Ry     beta= 0.70
     Davidson diagonalization with overlap

---- Real-time Memory Report at c_bands before calling an iterative solver
           333 MiB given to the printing process from OS
           241 MiB allocation reported by mallinfo(arena+hblkhd)
        321357 MiB available memory on the node where the printing process lives
------------------
     ethr =  2.11E-13,  avg # of iterations = 10.3

     total cpu time spent up to now is       63.0 secs

     total energy              =   -1932.42894575 Ry
     estimated scf accuracy    <          4.6E-11 Ry

     iteration # 15     ecut=   100.00 Ry     beta= 0.70
     Davidson diagonalization with overlap

---- Real-time Memory Report at c_bands before calling an iterative solver
           333 MiB given to the printing process from OS
           241 MiB allocation reported by mallinfo(arena+hblkhd)
        321370 MiB available memory on the node where the printing process lives
------------------
     ethr =  1.00E-13,  avg # of iterations = 16.7

     total cpu time spent up to now is       66.4 secs

     total energy              =   -1932.42894575 Ry
     estimated scf accuracy    <          2.3E-11 Ry

     iteration # 16     ecut=   100.00 Ry     beta= 0.70
     Davidson diagonalization with overlap

---- Real-time Memory Report at c_bands before calling an iterative solver
           333 MiB given to the printing process from OS
           241 MiB allocation reported by mallinfo(arena+hblkhd)
        321352 MiB available memory on the node where the printing process lives
------------------
     ethr =  1.00E-13,  avg # of iterations = 14.7

     total cpu time spent up to now is       69.6 secs

     total energy              =   -1932.42894575 Ry
     estimated scf accuracy    <          2.1E-12 Ry

     iteration # 17     ecut=   100.00 Ry     beta= 0.70
     Davidson diagonalization with overlap

---- Real-time Memory Report at c_bands before calling an iterative solver
           333 MiB given to the printing process from OS
           241 MiB allocation reported by mallinfo(arena+hblkhd)
        321373 MiB available memory on the node where the printing process lives
------------------
     ethr =  1.00E-13,  avg # of iterations = 13.1

     total cpu time spent up to now is       72.6 secs

     End of self-consistent calculation

          k = 0.0000 0.0000 0.0000 (197283 PWs)   bands (ev):

   -56.9414 -56.8968 -56.8968 -47.8574 -47.8500 -47.8500 -47.7943 -47.7943
   -47.1500 -47.1500 -47.1492 -47.1396 -47.1392 -47.1392 -47.1196 -47.1196
   -47.0589 -47.0589 -47.0444 -47.0425 -47.0425 -47.0380 -47.0195 -47.0195
   -47.0178 -47.0018 -47.0012 -47.0012 -46.6484 -46.6479 -46.6479 -46.6436
   -46.6436 -46.6426 -46.5715 -46.5715 -46.5695 -46.5132 -46.5112 -46.5112
   -46.5056 -46.5048 -46.5048 -33.1752 -33.0883 -33.0883 -33.0778 -33.0362
   -33.0362 -32.8868 -32.7468 -32.7468 -15.6475 -15.2228 -14.5443 -14.5224
   -14.5224 -14.3652 -13.9957 -13.9957  -7.1195  -7.1195  -6.8065  -6.4482
    -6.2920  -6.2920  -6.0358  -5.8796  -5.3183  -5.3183  -4.5818  -4.4545
    -4.4545  -4.3713  -4.2705  -4.2705  -3.8988  -3.8942  -3.8942  -3.6855
    -3.0851  -3.0851  -2.6660  -2.3471  -2.3471  -2.0881  -2.0881  -1.3560
    -0.4276  -0.4276  -0.0635   0.2151   0.2151   0.5749   0.6353   0.6353
     0.8640   0.8640   1.2501   1.7940   2.5026   2.5026   2.5726   2.7506
     3.0865   3.2581

     occupation numbers 
     1.0000   1.0000   1.0000   1.0000   1.0000   1.0000   1.0000   1.0000
     1.0000   1.0000   1.0000   1.0000   1.0000   1.0000   1.0000   1.0000
     1.0000   1.0000   1.0000   1.0000   1.0000   1.0000   1.0000   1.0000
     1.0000   1.0000   1.0000   1.0000   1.0000   1.0000   1.0000   1.0000
     1.0000   1.0000   1.0000   1.0000   1.0000   1.0000   1.0000   1.0000
     1.0000   1.0000   1.0000   1.0000   1.0000   1.0000   1.0000   1.0000
     1.0000   1.0000   1.0000   1.0000   1.0000   1.0000   1.0000   1.0000
     1.0000   1.0000   1.0000   1.0000   1.0000   1.0000   1.0000   1.0000
     1.0000   1.0000   1.0000   1.0000   1.0000   1.0000   1.0000   1.0000
     1.0000   1.0000   1.0000   1.0000   1.0000   1.0000   1.0000   1.0000
     1.0000   1.0000   1.0000   1.0000   1.0000   1.0000   1.0000   1.0798
     0.0000   0.0000   0.0000   0.0000   0.0000   0.0000   0.0000   0.0000
     0.0000   0.0000   0.0000   0.0000   0.0000   0.0000   0.0000   0.0000
     0.0000   0.0000

          k =-0.0962 0.1667 0.0000 (197376 PWs)   bands (ev):

   -56.9414 -56.8968 -56.8968 -47.8574 -47.8500 -47.8500 -47.7943 -47.7943
   -47.1500 -47.1499 -47.1492 -47.1395 -47.1392 -47.1392 -47.1197 -47.1196
   -47.0589 -47.0589 -47.0443 -47.0426 -47.0425 -47.0380 -47.0195 -47.0194
   -47.0179 -47.0018 -47.0012 -47.0012 -46.6484 -46.6480 -46.6479 -46.6436
   -46.6435 -46.6427 -46.5715 -46.5714 -46.5696 -46.5131 -46.5113 -46.5112
   -46.5056 -46.5048 -46.5048 -33.1743 -33.0881 -33.0875 -33.0774 -33.0365
   -33.0362 -32.8874 -32.7483 -32.7471 -15.6185 -15.1973 -14.5948 -14.5339
   -14.5256 -14.3599 -14.0251 -13.9951  -7.0202  -7.0199  -6.6576  -6.4199
    -6.2521  -6.2037  -5.9530  -5.8072  -5.3742  -5.3439  -4.7018  -4.6209
    -4.5187  -4.4846  -4.3160  -4.1756  -4.0377  -4.0127  -3.8326  -3.6212
    -3.2747  -3.0932  -2.7342  -2.6524  -2.4148  -2.1309  -2.1041  -1.3117
    -0.4401  -0.4149  -0.0379   0.1846   0.1929   0.4514   0.5319   0.5803
     0.8799   1.0268   1.2423   2.0013   2.6513   2.7627   2.7670   2.8893
     3.1864   3.2613

     occupation numbers 
     1.0000   1.0000   1.0000   1.0000   1.0000   1.0000   1.0000   1.0000
     1.0000   1.0000   1.0000   1.0000   1.0000   1.0000   1.0000   1.0000
     1.0000   1.0000   1.0000   1.0000   1.0000   1.0000   1.0000   1.0000
     1.0000   1.0000   1.0000   1.0000   1.0000   1.0000   1.0000   1.0000
     1.0000   1.0000   1.0000   1.0000   1.0000   1.0000   1.0000   1.0000
     1.0000   1.0000   1.0000   1.0000   1.0000   1.0000   1.0000   1.0000
     1.0000   1.0000   1.0000   1.0000   1.0000   1.0000   1.0000   1.0000
     1.0000   1.0000   1.0000   1.0000   1.0000   1.0000   1.0000   1.0000
     1.0000   1.0000   1.0000   1.0000   1.0000   1.0000   1.0000   1.0000
     1.0000   1.0000   1.0000   1.0000   1.0000   1.0000   1.0000   1.0000
     1.0000   1.0000   1.0000   1.0000   1.0000   1.0000   1.0000   0.8710
     0.0000   0.0000   0.0000   0.0000   0.0000   0.0000   0.0000   0.0000
     0.0000   0.0000   0.0000   0.0000   0.0000   0.0000   0.0000   0.0000
     0.0000   0.0000

          k =-0.1925 0.3333 0.0000 (197434 PWs)   bands (ev):

   -56.9414 -56.8968 -56.8968 -47.8574 -47.8500 -47.8500 -47.7943 -47.7943
   -47.1500 -47.1498 -47.1493 -47.1395 -47.1393 -47.1392 -47.1197 -47.1197
   -47.0589 -47.0589 -47.0440 -47.0429 -47.0425 -47.0380 -47.0195 -47.0192
   -47.0182 -47.0017 -47.0013 -47.0012 -46.6483 -46.6480 -46.6479 -46.6436
   -46.6434 -46.6428 -46.5715 -46.5711 -46.5699 -46.5128 -46.5116 -46.5112
   -46.5054 -46.5049 -46.5048 -33.1725 -33.0877 -33.0860 -33.0764 -33.0371
   -33.0361 -32.8885 -32.7511 -32.7476 -15.5575 -15.1128 -14.7548 -14.5374
   -14.5318 -14.3408 -14.0878 -13.9940  -6.7785  -6.7744  -6.4249  -6.2322
    -6.1498  -5.9506  -5.7887  -5.6225  -5.5194  -5.4386  -5.0084  -4.8583
    -4.8394  -4.5944  -4.3187  -4.3183  -4.1868  -4.1573  -3.7569  -3.7023
    -3.4496  -3.2248  -3.1508  -2.8233  -2.5670  -2.1993  -2.0981  -1.3065
    -0.4277  -0.4006  -0.0569   0.1097   0.1099   0.3225   0.5071   0.5559
     0.7963   1.0332   1.4322   2.4882   2.9256   3.1722   3.2118   3.3250
     3.4160   3.4790

     occupation numbers 
     1.0000   1.0000   1.0000   1.0000   1.0000   1.0000   1.0000   1.0000
     1.0000   1.0000   1.0000   1.0000   1.0000   1.0000   1.0000   1.0000
     1.0000   1.0000   1.0000   1.0000   1.0000   1.0000   1.0000   1.0000
     1.0000   1.0000   1.0000   1.0000   1.0000   1.0000   1.0000   1.0000
     1.0000   1.0000   1.0000   1.0000   1.0000   1.0000   1.0000   1.0000
     1.0000   1.0000   1.0000   1.0000   1.0000   1.0000   1.0000   1.0000
     1.0000   1.0000   1.0000   1.0000   1.0000   1.0000   1.0000   1.0000
     1.0000   1.0000   1.0000   1.0000   1.0000   1.0000   1.0000   1.0000
     1.0000   1.0000   1.0000   1.0000   1.0000   1.0000   1.0000   1.0000
     1.0000   1.0000   1.0000   1.0000   1.0000   1.0000   1.0000   1.0000
     1.0000   1.0000   1.0000   1.0000   1.0000   1.0000   1.0000   0.8048
     0.0000   0.0000   0.0000   0.0000   0.0000   0.0000   0.0000   0.0000
     0.0000   0.0000   0.0000   0.0000   0.0000   0.0000   0.0000   0.0000
     0.0000   0.0000

          k = 0.2887-0.5000 0.0000 (197578 PWs)   bands (ev):

   -56.9413 -56.8969 -56.8968 -47.8574 -47.8500 -47.8500 -47.7943 -47.7943
   -47.1500 -47.1497 -47.1494 -47.1394 -47.1393 -47.1392 -47.1197 -47.1197
   -47.0589 -47.0589 -47.0438 -47.0431 -47.0425 -47.0380 -47.0196 -47.0190
   -47.0184 -47.0016 -47.0014 -47.0012 -46.6483 -46.6481 -46.6479 -46.6436
   -46.6433 -46.6429 -46.5715 -46.5709 -46.5701 -46.5126 -46.5118 -46.5112
   -46.5054 -46.5050 -46.5048 -33.1715 -33.0875 -33.0852 -33.0759 -33.0374
   -33.0361 -32.8891 -32.7526 -32.7479 -15.5262 -14.9817 -14.9260 -14.5384
   -14.5349 -14.3258 -14.1234 -13.9934  -6.6122  -6.6036  -6.3636  -6.1082
    -6.0586  -5.8008  -5.6622  -5.5707  -5.5621  -5.3791  -5.1642  -5.0628
    -5.0151  -4.6479  -4.6067  -4.3365  -4.2915  -4.1896  -3.8202  -3.6100
    -3.6093  -3.3170  -3.2091  -2.8765  -2.6439  -2.2338  -2.0984  -1.3283
    -0.4050  -0.3918  -0.0882   0.0373   0.0801   0.2987   0.5364   0.5520
     0.7263   1.0300   1.5259   2.8541   3.0617   3.2703   3.4546   3.5958
     3.7408   3.7993

     occupation numbers 
     1.0000   1.0000   1.0000   1.0000   1.0000   1.0000   1.0000   1.0000
     1.0000   1.0000   1.0000   1.0000   1.0000   1.0000   1.0000   1.0000
     1.0000   1.0000   1.0000   1.0000   1.0000   1.0000   1.0000   1.0000
     1.0000   1.0000   1.0000   1.0000   1.0000   1.0000   1.0000   1.0000
     1.0000   1.0000   1.0000   1.0000   1.0000   1.0000   1.0000   1.0000
     1.0000   1.0000   1.0000   1.0000   1.0000   1.0000   1.0000   1.0000
     1.0000   1.0000   1.0000   1.0000   1.0000   1.0000   1.0000   1.0000
     1.0000   1.0000   1.0000   1.0000   1.0000   1.0000   1.0000   1.0000
     1.0000   1.0000   1.0000   1.0000   1.0000   1.0000   1.0000   1.0000
     1.0000   1.0000   1.0000   1.0000   1.0000   1.0000   1.0000   1.0000
     1.0000   1.0000   1.0000   1.0000   1.0000   1.0000   1.0000   1.0238
     0.0000   0.0000   0.0000   0.0000   0.0000   0.0000   0.0000   0.0000
     0.0000   0.0000   0.0000   0.0000   0.0000   0.0000   0.0000   0.0000
     0.0000   0.0000

          k = 0.0000 0.3333 0.0000 (197513 PWs)   bands (ev):

   -56.9414 -56.8968 -56.8968 -47.8574 -47.8500 -47.8500 -47.7943 -47.7943
   -47.1500 -47.1499 -47.1493 -47.1395 -47.1393 -47.1392 -47.1197 -47.1197
   -47.0589 -47.0589 -47.0441 -47.0428 -47.0425 -47.0380 -47.0195 -47.0193
   -47.0181 -47.0017 -47.0013 -47.0012 -46.6484 -46.6480 -46.6479 -46.6436
   -46.6434 -46.6428 -46.5715 -46.5712 -46.5698 -46.5129 -46.5115 -46.5112
   -46.5055 -46.5049 -46.5048 -33.1729 -33.0877 -33.0865 -33.0766 -33.0369
   -33.0362 -32.8882 -32.7503 -32.7476 -15.5733 -15.1421 -14.6660 -14.6232
   -14.4836 -14.3461 -14.0777 -13.9882  -6.8607  -6.8366  -6.4026  -6.3711
    -6.1706  -6.0246  -5.8373  -5.6660  -5.4760  -5.4069  -4.9881  -4.8162
    -4.6422  -4.6154  -4.4134  -4.1972  -4.0760  -4.0402  -3.8889  -3.5956
    -3.4550  -3.2494  -2.9738  -2.8359  -2.5468  -2.2042  -2.0896  -1.2774
    -0.4911  -0.3556  -0.0162   0.0973   0.1590   0.3414   0.4302   0.6270
     0.7913   1.1916   1.2188   2.3769   2.8712   3.0540   3.1261   3.1725
     3.3766   3.3985

     occupation numbers 
     1.0000   1.0000   1.0000   1.0000   1.0000   1.0000   1.0000   1.0000
     1.0000   1.0000   1.0000   1.0000   1.0000   1.0000   1.0000   1.0000
     1.0000   1.0000   1.0000   1.0000   1.0000   1.0000   1.0000   1.0000
     1.0000   1.0000   1.0000   1.0000   1.0000   1.0000   1.0000   1.0000
     1.0000   1.0000   1.0000   1.0000   1.0000   1.0000   1.0000   1.0000
     1.0000   1.0000   1.0000   1.0000   1.0000   1.0000   1.0000   1.0000
     1.0000   1.0000   1.0000   1.0000   1.0000   1.0000   1.0000   1.0000
     1.0000   1.0000   1.0000   1.0000   1.0000   1.0000   1.0000   1.0000
     1.0000   1.0000   1.0000   1.0000   1.0000   1.0000   1.0000   1.0000
     1.0000   1.0000   1.0000   1.0000   1.0000   1.0000   1.0000   1.0000
     1.0000   1.0000   1.0000   1.0000   1.0000   1.0000   1.0000   0.3818
     0.0000   0.0000   0.0000   0.0000   0.0000   0.0000   0.0000   0.0000
     0.0000   0.0000   0.0000   0.0000   0.0000   0.0000   0.0000   0.0000
     0.0000   0.0000

          k =-0.0962 0.5000 0.0000 (197529 PWs)   bands (ev):

   -56.9413 -56.8969 -56.8968 -47.8574 -47.8500 -47.8500 -47.7943 -47.7943
   -47.1500 -47.1497 -47.1494 -47.1394 -47.1393 -47.1392 -47.1197 -47.1197
   -47.0589 -47.0589 -47.0438 -47.0431 -47.0425 -47.0380 -47.0196 -47.0190
   -47.0184 -47.0016 -47.0014 -47.0012 -46.6483 -46.6481 -46.6479 -46.6436
   -46.6433 -46.6429 -46.5715 -46.5709 -46.5701 -46.5126 -46.5118 -46.5112
   -46.5054 -46.5050 -46.5048 -33.1715 -33.0872 -33.0856 -33.0759 -33.0372
   -33.0363 -32.8890 -32.7522 -32.7483 -15.5274 -15.0213 -14.8315 -14.6713
   -14.4534 -14.3252 -14.1405 -13.9790  -6.6429  -6.5972  -6.3064  -6.1494
    -6.0373  -5.7927  -5.6570  -5.6044  -5.5603  -5.4007  -5.2165  -5.0642
    -4.9286  -4.7642  -4.6089  -4.3059  -4.2024  -4.0346  -3.8188  -3.7593
    -3.5470  -3.3168  -3.2252  -2.9493  -2.6458  -2.2650  -2.1143  -1.2521
    -0.5402  -0.2865  -0.0420   0.0384   0.1018   0.2575   0.3761   0.6752
     0.7770   1.1186   1.3435   2.8692   3.1071   3.3483   3.4513   3.5042
     3.6250   3.7359

     occupation numbers 
     1.0000   1.0000   1.0000   1.0000   1.0000   1.0000   1.0000   1.0000
     1.0000   1.0000   1.0000   1.0000   1.0000   1.0000   1.0000   1.0000
     1.0000   1.0000   1.0000   1.0000   1.0000   1.0000   1.0000   1.0000
     1.0000   1.0000   1.0000   1.0000   1.0000   1.0000   1.0000   1.0000
     1.0000   1.0000   1.0000   1.0000   1.0000   1.0000   1.0000   1.0000
     1.0000   1.0000   1.0000   1.0000   1.0000   1.0000   1.0000   1.0000
     1.0000   1.0000   1.0000   1.0000   1.0000   1.0000   1.0000   1.0000
     1.0000   1.0000   1.0000   1.0000   1.0000   1.0000   1.0000   1.0000
     1.0000   1.0000   1.0000   1.0000   1.0000   1.0000   1.0000   1.0000
     1.0000   1.0000   1.0000   1.0000   1.0000   1.0000   1.0000   1.0000
     1.0000   1.0000   1.0000   1.0000   1.0000   1.0000   1.0000   0.1252
     0.0000   0.0000   0.0000   0.0000   0.0000   0.0000   0.0000   0.0000
     0.0000   0.0000   0.0000   0.0000   0.0000   0.0000   0.0000   0.0000
     0.0000   0.0000

          k = 0.0000 0.6667 0.0000 (197613 PWs)   bands (ev):

   -56.9413 -56.8969 -56.8968 -47.8574 -47.8500 -47.8500 -47.7943 -47.7943
   -47.1500 -47.1497 -47.1495 -47.1394 -47.1394 -47.1392 -47.1197 -47.1197
   -47.0589 -47.0589 -47.0436 -47.0434 -47.0425 -47.0380 -47.0196 -47.0187
   -47.0186 -47.0016 -47.0015 -47.0012 -46.6482 -46.6481 -46.6479 -46.6436
   -46.6432 -46.6430 -46.5715 -46.5707 -46.5703 -46.5124 -46.5120 -46.5113
   -46.5053 -46.5051 -46.5048 -33.1710 -33.0865 -33.0858 -33.0756 -33.0369
   -33.0367 -32.8893 -32.7526 -32.7488 -15.5133 -14.9088 -14.8588 -14.8067
   -14.4175 -14.3157 -14.1784 -13.9662  -6.5937  -6.3795  -6.2910  -6.1923
    -5.8924  -5.7756  -5.7038  -5.6270  -5.3722  -5.3201  -5.2516  -5.1336
    -5.0150  -4.9846  -4.8281  -4.2257  -4.2192  -4.0257  -3.8708  -3.8029
    -3.4414  -3.3753  -3.2555  -3.1426  -2.6565  -2.2866  -2.1670  -1.1782
    -0.6173  -0.2277  -0.0650   0.0929   0.1078   0.1692   0.2755   0.7484
     0.9627   0.9665   1.2979   3.1777   3.2746   3.3823   3.4762   3.5578
     3.6327   3.6600

     occupation numbers 
     1.0000   1.0000   1.0000   1.0000   1.0000   1.0000   1.0000   1.0000
     1.0000   1.0000   1.0000   1.0000   1.0000   1.0000   1.0000   1.0000
     1.0000   1.0000   1.0000   1.0000   1.0000   1.0000   1.0000   1.0000
     1.0000   1.0000   1.0000   1.0000   1.0000   1.0000   1.0000   1.0000
     1.0000   1.0000   1.0000   1.0000   1.0000   1.0000   1.0000   1.0000
     1.0000   1.0000   1.0000   1.0000   1.0000   1.0000   1.0000   1.0000
     1.0000   1.0000   1.0000   1.0000   1.0000   1.0000   1.0000   1.0000
     1.0000   1.0000   1.0000   1.0000   1.0000   1.0000   1.0000   1.0000
     1.0000   1.0000   1.0000   1.0000   1.0000   1.0000   1.0000   1.0000
     1.0000   1.0000   1.0000   1.0000   1.0000   1.0000   1.0000   1.0000
     1.0000   1.0000   1.0000   1.0000   1.0000   1.0000   1.0000   0.0003
     0.0000   0.0000   0.0000   0.0000   0.0000   0.0000   0.0000   0.0000
     0.0000   0.0000   0.0000   0.0000   0.0000   0.0000   0.0000   0.0000
     0.0000   0.0000

     the Fermi energy is    -1.2788 ev

!    total energy              =   -1932.42894575 Ry
     estimated scf accuracy    <          7.1E-14 Ry
     smearing contrib. (-TS)   =      -0.00046787 Ry
     internal energy E=F+TS    =   -1932.42847787 Ry

     convergence has been achieved in  17 iterations

     Forces acting on atoms (cartesian axes, Ry/au):

     atom    1 type  1   force =    -0.00000022    0.00000000   -0.00000040
     atom    2 type  1   force =     0.00000011   -0.00000019   -0.00000040
     atom    3 type  1   force =     0.00000011    0.00000019   -0.00000040
     atom    4 type  2   force =     0.00000021   -0.00000000    0.00000050
     atom    5 type  2   force =    -0.00000011    0.00000019    0.00000050
     atom    6 type  2   force =    -0.00000011   -0.00000019    0.00000050
     atom    7 type  2   force =     0.00000000    0.00000000   -0.00000051
     atom    8 type  2   force =     0.00000011   -0.00000000   -0.00000005
     atom    9 type  2   force =    -0.00000005    0.00000009   -0.00000005
     atom   10 type  2   force =    -0.00000005   -0.00000009   -0.00000005
     atom   11 type  2   force =    -0.00000000   -0.00000000    0.00000037
     The non-local contrib.  to forces
     atom    1 type  1   force =     0.15471074   -0.00000000    0.03351419
     atom    2 type  1   force =    -0.07735537    0.13398343    0.03351419
     atom    3 type  1   force =    -0.07735537   -0.13398343    0.03351419
     atom    4 type  2   force =    -0.29484953    0.00000000    0.43659265
     atom    5 type  2   force =     0.14742476   -0.25534718    0.43659265
     atom    6 type  2   force =     0.14742476    0.25534718    0.43659265
     atom    7 type  2   force =     0.00000000    0.00000000    0.38074340
     atom    8 type  2   force =     0.22306269    0.00000000   -0.35431260
     atom    9 type  2   force =    -0.11153135    0.19317796   -0.35431260
     atom   10 type  2   force =    -0.11153135   -0.19317796   -0.35431260
     atom   11 type  2   force =     0.00000000    0.00000000   -0.62444828
     The ionic contribution  to forces
     atom    1 type  1   force =    -7.71949971   -0.00000000    2.07552463
     atom    2 type  1   force =     3.85974986   -6.68528285    2.07552463
     atom    3 type  1   force =     3.85974986    6.68528285    2.07552463
     atom    4 type  2   force =    11.82027587   -0.00000000 -106.50594791
     atom    5 type  2   force =    -5.91013793   10.23665918 -106.50594791
     atom    6 type  2   force =    -5.91013793  -10.23665918 -106.50594791
     atom    7 type  2   force =     0.00000000   -0.00000000  -85.53597014
     atom    8 type  2   force =    -5.72611748   -0.00000000   90.33826040
     atom    9 type  2   force =     2.86305874   -4.95896320   90.33826040
     atom   10 type  2   force =     2.86305874    4.95896320   90.33826040
     atom   11 type  2   force =    -0.00000000   -0.00000000  127.81245879
     The local contribution  to forces
     atom    1 type  1   force =     7.56468760    0.00000001   -2.10898506
     atom    2 type  1   force =    -3.78234378    6.55121166   -2.10898506
     atom    3 type  1   force =    -3.78234378   -6.55121163   -2.10898506
     atom    4 type  2   force =   -11.52560938    0.00000002  106.06811022
     atom    5 type  2   force =     5.76280468   -9.98147047  106.06811022
     atom    6 type  2   force =     5.76280468    9.98147052  106.06811022
     atom    7 type  2   force =     0.00000000    0.00000002   85.15625141
     atom    8 type  2   force =     5.50412123    0.00000001  -89.98342841
     atom    9 type  2   force =    -2.75206062    4.76670887  -89.98342840
     atom   10 type  2   force =    -2.75206062   -4.76670882  -89.98342841
     atom   11 type  2   force =    -0.00000002    0.00000002 -127.18689440
     The core correction contribution to forces
     atom    1 type  1   force =     0.00000000    0.00000000    0.00000000
     atom    2 type  1   force =     0.00000000    0.00000000    0.00000000
     atom    3 type  1   force =     0.00000000    0.00000000    0.00000000
     atom    4 type  2   force =     0.00000000    0.00000000    0.00000000
     atom    5 type  2   force =     0.00000000    0.00000000    0.00000000
     atom    6 type  2   force =     0.00000000    0.00000000    0.00000000
     atom    7 type  2   force =     0.00000000    0.00000000    0.00000000
     atom    8 type  2   force =     0.00000000    0.00000000    0.00000000
     atom    9 type  2   force =     0.00000000    0.00000000    0.00000000
     atom   10 type  2   force =     0.00000000    0.00000000    0.00000000
     atom   11 type  2   force =     0.00000000    0.00000000    0.00000000
     The Hubbard contrib.    to forces
     atom    1 type  1   force =     0.00000000    0.00000000    0.00000000
     atom    2 type  1   force =     0.00000000    0.00000000    0.00000000
     atom    3 type  1   force =     0.00000000    0.00000000    0.00000000
     atom    4 type  2   force =     0.00000000    0.00000000    0.00000000
     atom    5 type  2   force =     0.00000000    0.00000000    0.00000000
     atom    6 type  2   force =     0.00000000    0.00000000    0.00000000
     atom    7 type  2   force =     0.00000000    0.00000000    0.00000000
     atom    8 type  2   force =     0.00000000    0.00000000    0.00000000
     atom    9 type  2   force =     0.00000000    0.00000000    0.00000000
     atom   10 type  2   force =     0.00000000    0.00000000    0.00000000
     atom   11 type  2   force =     0.00000000    0.00000000    0.00000000
     The SCF correction term to forces
     atom    1 type  1   force =     0.00000034    0.00000000    0.00000017
     atom    2 type  1   force =    -0.00000017    0.00000029    0.00000017
     atom    3 type  1   force =    -0.00000017   -0.00000029    0.00000017
     atom    4 type  2   force =     0.00000007    0.00000000   -0.00000020
     atom    5 type  2   force =    -0.00000003    0.00000006   -0.00000020
     atom    6 type  2   force =    -0.00000003   -0.00000006   -0.00000020
     atom    7 type  2   force =    -0.00000000   -0.00000000    0.00000019
     atom    8 type  2   force =    -0.00000004    0.00000000    0.00000023
     atom    9 type  2   force =     0.00000002   -0.00000004    0.00000023
     atom   10 type  2   force =     0.00000002    0.00000004    0.00000023
     atom   11 type  2   force =    -0.00000000    0.00000000   -0.00000050

     DFT-D3 dispersion contribution to forces:
     atom    1 type  1   force =     0.00010081    0.00000000   -0.00004293
     atom    2 type  1   force =    -0.00005040    0.00008730   -0.00004293
     atom    3 type  1   force =    -0.00005040   -0.00008730   -0.00004293
     atom    4 type  2   force =     0.00018317    0.00000000    0.00125714
     atom    5 type  2   force =    -0.00009158    0.00015863    0.00125714
     atom    6 type  2   force =    -0.00009158   -0.00015863    0.00125714
     atom    7 type  2   force =     0.00000000    0.00000000   -0.00101397
     atom    8 type  2   force =    -0.00106632    0.00000000   -0.00050828
     atom    9 type  2   force =     0.00053316   -0.00092346   -0.00050828
     atom   10 type  2   force =     0.00053316    0.00092346   -0.00050828
     atom   11 type  2   force =    -0.00000000    0.00000000   -0.00110385

     Total force =     0.000001     Total SCF correction =     0.000001

     DFT-D3 dispersion Force =     0.003363
     SCF correction compared to forces is large: reduce conv_thr to get better values


     Computing stress (Cartesian axis) and pressure

          total   stress  (Ry/bohr**3)                   (kbar)     P=       -0.04
  -0.00000033  -0.00000000   0.00000000           -0.05       -0.00        0.00
   0.00000000  -0.00000033   0.00000000            0.00       -0.05        0.00
   0.00000000   0.00000000  -0.00000025            0.00        0.00       -0.04

     kinetic stress (kbar)   6671.24      0.00     -0.00
                                0.00   6671.24     -0.00
                               -0.00     -0.00   6657.96

     local   stress (kbar)-204733.99      0.00     -0.00
                                0.00-204733.99      0.00
                               -0.00      0.00 201121.70

     nonloc. stress (kbar)   -532.08      0.00     -0.00
                               -0.00   -532.08     -0.00
                                0.00     -0.00   -525.51

     hartree stress (kbar) 102418.37     -0.00      0.00
                               -0.00 102418.37     -0.00
                                0.00     -0.00 -98552.56

     exc-cor stress (kbar)   -785.94      0.00      0.00
                                0.00   -785.94     -0.00
                                0.00     -0.00   -786.71

     corecor stress (kbar)      0.00      0.00      0.00
                                0.00      0.00      0.00
                                0.00      0.00      0.00

     ewald   stress (kbar)  96963.71     -0.00      0.00
                               -0.00  96963.71     -0.00
                                0.00     -0.00-107914.66

     hubbard stress (kbar)      0.00      0.00      0.00
                                0.00      0.00      0.00
                                0.00      0.00      0.00

     DFT-D   stress (kbar)     -1.36      0.00     -0.00
                                0.00     -1.36     -0.00
                               -0.00     -0.00     -0.25

     XDM     stress (kbar)      0.00      0.00      0.00
                                0.00      0.00      0.00
                                0.00      0.00      0.00

     dft-nl  stress (kbar)      0.00      0.00      0.00
                                0.00      0.00      0.00
                                0.00      0.00      0.00

     TS-vdW  stress (kbar)      0.00      0.00      0.00
                                0.00      0.00      0.00
                                0.00      0.00      0.00

     MDB     stress (kbar)      0.00      0.00      0.00
                                0.00      0.00      0.00
                                0.00      0.00      0.00

     3D-RISM stress (kbar)      0.00      0.00      0.00
                                0.00      0.00      0.00
                                0.00      0.00      0.00


     Damped Dynamics Calculation

     Damped Dynamics: convergence achieved in   0 steps

     End of damped dynamics calculation

     Final energy =   -1932.4289457475 Ry

Begin final coordinates
     new unit-cell volume =  11694.93906 a.u.^3 (  1733.01117 Ang^3 )
     density =      1.23984 g/cm^3

CELL_PARAMETERS (angstrom)
   6.608404008   3.815363833   0.000000000
  -6.608404008   3.815363833   0.000000000
   0.000000000   0.000000000  34.366778354

ATOMIC_POSITIONS (angstrom)
Nb               4.8753857310        3.8153638329        3.4166936590
Nb               0.8665091383        6.1298898126        3.4166936590
Nb               0.8665091383        1.5008378531        3.4166936590
I               -4.4087662037        3.8153638329        1.5032500002
I               -1.0998189021        1.9049422174        1.5032500002
I               -1.0998189021        5.7257854483        1.5032500002
I                2.2028013360        3.8153638329        1.9516014329
I               -0.0387063794        3.8153638329        4.9580446461
I               -3.2848488143        5.6895250413        4.9580446461
I               -3.2848488143        1.9412026244        4.9580446461
I               -6.6084040079        3.8153638329        5.5736880040
End final coordinates



     Writing all to output data dir ./out/Nb3I8.save/ :
     XML data file, charge density, pseudopotentials, collected wavefunctions

     init_run     :      2.12s CPU      2.33s WALL (       1 calls)
     electrons    :     63.17s CPU     73.84s WALL (       1 calls)
     forces       :      0.35s CPU      0.38s WALL (       1 calls)
     force_dftd3  :      0.01s CPU      0.01s WALL (       1 calls)
     stress       :      3.67s CPU      3.80s WALL (       1 calls)
     stres_dftd3  :      0.00s CPU      0.00s WALL (       1 calls)

     Called by init_run:
     wfcinit      :      0.60s CPU      0.68s WALL (       1 calls)
     wfcinit:wfcr :      0.55s CPU      0.61s WALL (       1 calls)
     potinit      :      0.11s CPU      0.14s WALL (       1 calls)
     hinit0       :      0.80s CPU      0.84s WALL (       1 calls)

     Called by electrons:
     c_bands      :     55.25s CPU     58.69s WALL (      18 calls)
     sum_band     :      4.73s CPU      5.14s WALL (      18 calls)
     v_of_rho     :      1.96s CPU      2.15s WALL (      18 calls)
     v_h          :      0.16s CPU      0.18s WALL (      18 calls)
     v_xc         :      1.80s CPU      1.97s WALL (      18 calls)
     mix_rho      :      0.71s CPU      0.77s WALL (      18 calls)
     energy_dftd3 :      0.00s CPU      0.00s WALL (       1 calls)

     Called by c_bands:
     init_us_2    :      1.11s CPU      1.16s WALL (      37 calls)
     cegterg      :     49.20s CPU     52.53s WALL (      18 calls)

     Called by sum_band:
     sum_band:wei :      0.04s CPU      0.04s WALL (      18 calls)
     sum_band:loo :      4.18s CPU      4.51s WALL (      18 calls)
     sum_band:buf :      0.00s CPU      0.00s WALL (      18 calls)
     sum_band:ini :      0.58s CPU      0.60s WALL (      18 calls)

     Called by *egterg:
     cdiaghg      :      3.74s CPU      3.78s WALL (     275 calls)
     cegterg:over :      5.32s CPU      5.41s WALL (     258 calls)
     cegterg:upda :      4.88s CPU      5.09s WALL (     258 calls)
     cegterg:last :      4.43s CPU      4.49s WALL (      52 calls)
     h_psi        :     28.82s CPU     31.71s WALL (     277 calls)
     g_psi        :      0.14s CPU      0.15s WALL (     258 calls)

     Called by h_psi:
     h_psi:calbec :      4.08s CPU      4.16s WALL (     277 calls)
     vloc_psi     :     20.19s CPU     22.67s WALL (     277 calls)
     add_vuspsi   :      4.05s CPU      4.12s WALL (     277 calls)

     General routines
     calbec       :      4.30s CPU      4.38s WALL (     282 calls)
     fft          :      1.41s CPU      1.59s WALL (     188 calls)
     ffts         :      0.07s CPU      0.08s WALL (      18 calls)
     fftw         :     19.44s CPU     21.85s WALL (   14804 calls)

     Parallel routines

     PWSCF        :    192.02s CPU    223.77s WALL


   This run was terminated on:  10:39:54   8May2025            

=------------------------------------------------------------------------------=
   JOB DONE.
=------------------------------------------------------------------------------=
