
     Program PWSCF v.7.3.1 starts on  7May2025 at 12:26:42 

     This program is part of the open-source Quantum ESPRESSO suite
     for quantum simulation of materials; please cite
         "P. Giannozzi et al., J. Phys.:Condens. Matter 21 395502 (2009);
         "P. Giannozzi et al., J. Phys.:Condens. Matter 29 465901 (2017);
         "P. Giannozzi et al., J. Chem. Phys. 152 154105 (2020);
          URL http://www.quantum-espresso.org", 
     in publications or presentations arising from this work. More details at
     http://www.quantum-espresso.org/quote

     Parallel version (MPI & OpenMP), running on     384 processor cores
     Number of MPI processes:               384
     Threads/MPI process:                     1

     MPI processes distributed on     2 nodes
     319275 MiB available memory on the printing compute node when the environment starts

     Waiting for input...
     Reading input from standard input
Warning: card &CELL ignored
Warning: card / ignored
Warning: card &FCP ignored
Warning: card / ignored
Warning: card &RISM ignored
Warning: card / ignored

     Current dimensions of program PWSCF are:
     Max number of different atomic species (ntypx) = 10
     Max number of k-points (npk) =  40000
     Max angular momentum in pseudopotentials (lmaxx) =  4

     IMPORTANT: XC functional enforced from input :
     Exchange-correlation= PBE
                           (   1   4   3   4   0   0   0)
     Any further DFT definition will be discarded
     Please, verify this is what you really want

     Message from routine setup:
     using ibrav=0 with symmetry is DISCOURAGED, use correct ibrav instead
     Message from routine setup:
     Dynamics, you should have no symmetries

     K-points division:     npool     =      16
     R & G space division:  proc/nbgrp/npool/nimage =      24
     Subspace diagonalization in iterative solution of the eigenvalue problem:
     a serial algorithm will be used

     Message from routine divide_et_impera:
     suboptimal parallelization: some nodes have no k-points

     Parallelization info
     --------------------
     sticks:   dense  smooth     PW     G-vecs:    dense   smooth      PW
     Min         205     205     54                53411    53411    7298
     Max         206     206     55                53446    53446    7320
     Sum        4939    4939   1303              1282343  1282343  175515

     Using Slab Decomposition



     bravais-lattice index     =            0
     lattice parameter (alat)  =      13.3936  a.u.
     unit-cell volume          =    9490.8392 (a.u.)^3
     number of atoms/cell      =           22
     number of atomic types    =            2
     number of electrons       =       190.00
     number of Kohn-Sham states=          114
     kinetic-energy cutoff     =     100.0000  Ry
     charge density cutoff     =     400.0000  Ry
     scf convergence threshold =      1.0E-12
     mixing beta               =       0.7000
     number of iterations used =            8  plain     mixing
     energy convergence thresh.=      1.0E-04
     force convergence thresh. =      1.0E-06
     Exchange-correlation= PBE
                           (   1   4   3   4   0   0   0)
     nstep                     =           50


     celldm(1)=  13.393593  celldm(2)=   0.000000  celldm(3)=   0.000000
     celldm(4)=   0.000000  celldm(5)=   0.000000  celldm(6)=   0.000000

     crystal axes: (cart. coord. in units of alat)
               a(1) = (   0.866025   0.500000   0.000000 )  
               a(2) = (  -0.866025   0.500000   0.000000 )  
               a(3) = (   0.000000   0.000000   4.561238 )  

     reciprocal axes: (cart. coord. in units 2 pi/alat)
               b(1) = (  0.577350  1.000000 -0.000000 )  
               b(2) = ( -0.577350  1.000000  0.000000 )  
               b(3) = (  0.000000 -0.000000  0.219239 )  


     PseudoPot. # 1 for Nb read from file:
     /scratch-shared/mroesner/Nb3X8_cDFPT/pp/Nb_ONCV_PBE-1.2.upf
     MD5 check sum: 2c750ac0b6910ff4cf0ab5f6c4124a64
     Pseudo is Norm-conserving, Zval = 13.0
     Generated using ONCVPSP code by D. R. Hamann
     Using radial grid of  602 points,  6 beta functions with: 
                l(1) =   0
                l(2) =   0
                l(3) =   1
                l(4) =   1
                l(5) =   2
                l(6) =   2

     PseudoPot. # 2 for Br read from file:
     /scratch-shared/mroesner/Nb3X8_cDFPT/pp/Br_ONCV_PBE-1.2.upf
     MD5 check sum: 5b50323dbf1c0ae0ed9e7f1e72c3f86c
     Pseudo is Norm-conserving, Zval =  7.0
     Generated using ONCVPSP code by D. R. Hamann
     Using radial grid of  602 points,  6 beta functions with: 
                l(1) =   0
                l(2) =   0
                l(3) =   1
                l(4) =   1
                l(5) =   2
                l(6) =   2

     atomic species   valence    mass     pseudopotential
     Nb               13.00    92.90637     Nb( 1.00)
     Br                7.00    79.90400     Br( 1.00)

     12 Sym. Ops., with inversion, found


                                    s                        frac. trans.

      isym =  1     identity                                     

 cryst.   s( 1) = (     1          0          0      )
                  (     0          1          0      )
                  (     0          0          1      )

 cart.    s( 1) = (  1.0000000 -0.0000000  0.0000000 )
                  (  0.0000000  1.0000000  0.0000000 )
                  (  0.0000000  0.0000000  1.0000000 )


      isym =  2     180 deg rotation - cart. axis [0,1,0]        

 cryst.   s( 2) = (     0          1          0      )
                  (     1          0          0      )
                  (     0          0         -1      )

 cart.    s( 2) = ( -1.0000000 -0.0000000  0.0000000 )
                  ( -0.0000000  1.0000000  0.0000000 )
                  (  0.0000000  0.0000000 -1.0000000 )


      isym =  3     120 deg rotation - cryst. axis [0,0,1]       

 cryst.   s( 3) = (     0          1          0      )
                  (    -1         -1          0      )
                  (     0          0          1      )

 cart.    s( 3) = ( -0.5000000 -0.8660254  0.0000000 )
                  (  0.8660254 -0.5000000  0.0000000 )
                  (  0.0000000  0.0000000  1.0000000 )


      isym =  4     120 deg rotation - cryst. axis [0,0,-1]      

 cryst.   s( 4) = (    -1         -1          0      )
                  (     1          0          0      )
                  (     0          0          1      )

 cart.    s( 4) = ( -0.5000000  0.8660254  0.0000000 )
                  ( -0.8660254 -0.5000000  0.0000000 )
                  (  0.0000000  0.0000000  1.0000000 )


      isym =  5     180 deg rotation - cryst. axis [1,-1,0]      

 cryst.   s( 5) = (    -1         -1          0      )
                  (     0          1          0      )
                  (     0          0         -1      )

 cart.    s( 5) = (  0.5000000 -0.8660254  0.0000000 )
                  ( -0.8660254 -0.5000000  0.0000000 )
                  (  0.0000000  0.0000000 -1.0000000 )


      isym =  6     180 deg rotation - cryst. axis [2,1,0]       

 cryst.   s( 6) = (     1          0          0      )
                  (    -1         -1          0      )
                  (     0          0         -1      )

 cart.    s( 6) = (  0.5000000  0.8660254  0.0000000 )
                  (  0.8660254 -0.5000000  0.0000000 )
                  (  0.0000000  0.0000000 -1.0000000 )


      isym =  7     inversion                                    

 cryst.   s( 7) = (    -1          0          0      )
                  (     0         -1          0      )
                  (     0          0         -1      )

 cart.    s( 7) = ( -1.0000000  0.0000000  0.0000000 )
                  ( -0.0000000 -1.0000000  0.0000000 )
                  (  0.0000000  0.0000000 -1.0000000 )


      isym =  8     inv. 180 deg rotation - cart. axis [0,1,0]   

 cryst.   s( 8) = (     0         -1          0      )
                  (    -1          0          0      )
                  (     0          0          1      )

 cart.    s( 8) = (  1.0000000  0.0000000  0.0000000 )
                  (  0.0000000 -1.0000000  0.0000000 )
                  (  0.0000000  0.0000000  1.0000000 )


      isym =  9     inv. 120 deg rotation - cryst. axis [0,0,1]  

 cryst.   s( 9) = (     0         -1          0      )
                  (     1          1          0      )
                  (     0          0         -1      )

 cart.    s( 9) = (  0.5000000  0.8660254  0.0000000 )
                  ( -0.8660254  0.5000000  0.0000000 )
                  (  0.0000000  0.0000000 -1.0000000 )


      isym = 10     inv. 120 deg rotation - cryst. axis [0,0,-1] 

 cryst.   s(10) = (     1          1          0      )
                  (    -1          0          0      )
                  (     0          0         -1      )

 cart.    s(10) = (  0.5000000 -0.8660254  0.0000000 )
                  (  0.8660254  0.5000000  0.0000000 )
                  (  0.0000000  0.0000000 -1.0000000 )


      isym = 11     inv. 180 deg rotation - cryst. axis [1,-1,0] 

 cryst.   s(11) = (     1          1          0      )
                  (     0         -1          0      )
                  (     0          0          1      )

 cart.    s(11) = ( -0.5000000  0.8660254  0.0000000 )
                  (  0.8660254  0.5000000  0.0000000 )
                  (  0.0000000  0.0000000  1.0000000 )


      isym = 12     inv. 180 deg rotation - cryst. axis [2,1,0]  

 cryst.   s(12) = (    -1          0          0      )
                  (     1          1          0      )
                  (     0          0          1      )

 cart.    s(12) = ( -0.5000000 -0.8660254  0.0000000 )
                  ( -0.8660254  0.5000000  0.0000000 )
                  (  0.0000000  0.0000000  1.0000000 )


   Cartesian axes

     site n.     atom                  positions (alat units)
         1        Nb     tau(   1) = (   0.2336976  -0.0000000  -0.4610860  )
         2        Nb     tau(   2) = (  -0.1168488   0.2023881  -0.4610860  )
         3        Nb     tau(   3) = (  -0.1168488  -0.2023881  -0.4610860  )
         4        Nb     tau(   4) = (  -0.2336976   0.0000000   0.4610860  )
         5        Nb     tau(   5) = (   0.1168488  -0.2023881   0.4610860  )
         6        Nb     tau(   6) = (   0.1168488   0.2023881   0.4610860  )
         7        Br     tau(   7) = (   0.0000000   0.0000000  -0.7391137  )
         8        Br     tau(   8) = (  -0.8603495  -0.0000000  -0.6642212  )
         9        Br     tau(   9) = (  -0.4358507  -0.2450845  -0.6642212  )
        10        Br     tau(  10) = (  -0.4358507   0.2450845  -0.6642212  )
        11        Br     tau(  11) = (   0.5773503  -0.0000000  -0.2610780  )
        12        Br     tau(  12) = (  -0.2882406   0.0000000  -0.2145794  )
        13        Br     tau(  13) = (   0.1441203  -0.2496236  -0.2145794  )
        14        Br     tau(  14) = (   0.1441203   0.2496236  -0.2145794  )
        15        Br     tau(  15) = (   0.2882406  -0.0000000   0.2145794  )
        16        Br     tau(  16) = (  -0.1441203   0.2496236   0.2145794  )
        17        Br     tau(  17) = (  -0.1441203  -0.2496236   0.2145794  )
        18        Br     tau(  18) = (  -0.5773503   0.0000000   0.2610780  )
        19        Br     tau(  19) = (   0.8603495   0.0000000   0.6642212  )
        20        Br     tau(  20) = (   0.4358507   0.2450845   0.6642212  )
        21        Br     tau(  21) = (   0.4358507  -0.2450845   0.6642212  )
        22        Br     tau(  22) = (   0.0000000   0.0000000   0.7391137  )

     --------------------------------------------
     DFT-D3 Dispersion Correction (no 3-body):
     --------------------------------------------
       Reference C6 values for interpolation: 

         atom   Coordination number   C6
         Br         0.000           334.26
         Br         0.997           338.48
         Nb         0.000          2950.50
         Nb         1.954          1161.16
         Nb         2.922           857.79

       Values used:

         atom   Coordination number  R0_AB[au]  C6      C8
         Nb         8.090            3.647    857.79 111659.18
         Nb         8.090            3.647    857.79 111659.18
         Nb         8.090            3.647    857.79 111659.18
         Nb         8.090            3.647    857.79 111659.18
         Nb         8.090            3.647    857.79 111659.18
         Nb         8.090            3.647    857.79 111659.18
         Br         3.497            3.181    338.47  21401.43
         Br         2.760            3.181    338.47  21401.43
         Br         2.760            3.181    338.47  21401.43
         Br         2.760            3.181    338.47  21401.43
         Br         3.720            3.181    338.47  21401.43
         Br         2.861            3.181    338.47  21401.43
         Br         2.861            3.181    338.47  21401.43
         Br         2.861            3.181    338.47  21401.43
         Br         2.861            3.181    338.47  21401.43
         Br         2.861            3.181    338.47  21401.43
         Br         2.861            3.181    338.47  21401.43
         Br         3.720            3.181    338.47  21401.43
         Br         2.760            3.181    338.47  21401.43
         Br         2.760            3.181    338.47  21401.43
         Br         2.760            3.181    338.47  21401.43
         Br         3.497            3.181    338.47  21401.43

         Molecular C6 ( Ry / a.u.^6 ) =    219379.98


   Crystallographic axes

     site n.     atom                  positions (cryst. coord.)
         1        Nb     tau(   1) = (  0.1349254 -0.1349254 -0.1010879  )
         2        Nb     tau(   2) = (  0.1349254  0.2698508 -0.1010879  )
         3        Nb     tau(   3) = ( -0.2698508 -0.1349254 -0.1010879  )
         4        Nb     tau(   4) = ( -0.1349254  0.1349254  0.1010879  )
         5        Nb     tau(   5) = ( -0.1349254 -0.2698508  0.1010879  )
         6        Nb     tau(   6) = (  0.2698508  0.1349254  0.1010879  )
         7        Br     tau(   7) = (  0.0000000  0.0000000 -0.1620424  )
         8        Br     tau(   8) = ( -0.4967230  0.4967230 -0.1456230  )
         9        Br     tau(   9) = ( -0.4967230  0.0065540 -0.1456230  )
        10        Br     tau(  10) = ( -0.0065540  0.4967230 -0.1456230  )
        11        Br     tau(  11) = (  0.3333333 -0.3333333 -0.0572384  )
        12        Br     tau(  12) = ( -0.1664158  0.1664158 -0.0470441  )
        13        Br     tau(  13) = ( -0.1664158 -0.3328315 -0.0470441  )
        14        Br     tau(  14) = (  0.3328315  0.1664158 -0.0470441  )
        15        Br     tau(  15) = (  0.1664158 -0.1664158  0.0470441  )
        16        Br     tau(  16) = (  0.1664158  0.3328315  0.0470441  )
        17        Br     tau(  17) = ( -0.3328315 -0.1664158  0.0470441  )
        18        Br     tau(  18) = ( -0.3333333  0.3333333  0.0572384  )
        19        Br     tau(  19) = (  0.4967230 -0.4967230  0.1456230  )
        20        Br     tau(  20) = (  0.4967230 -0.0065540  0.1456230  )
        21        Br     tau(  21) = (  0.0065540 -0.4967230  0.1456230  )
        22        Br     tau(  22) = (  0.0000000  0.0000000  0.1620424  )

     number of k points=     7  Marzari-Vanderbilt smearing, width (Ry)=  0.0037
                       cart. coord. in units 2pi/alat
        k(    1) = (   0.0000000   0.0000000   0.0000000), wk =   0.0555556
        k(    2) = (  -0.0962250   0.1666667   0.0000000), wk =   0.3333333
        k(    3) = (  -0.1924501   0.3333333   0.0000000), wk =   0.3333333
        k(    4) = (   0.2886751  -0.5000000   0.0000000), wk =   0.1666667
        k(    5) = (  -0.0000000   0.3333333   0.0000000), wk =   0.3333333
        k(    6) = (  -0.0962250   0.5000000   0.0000000), wk =   0.6666667
        k(    7) = (  -0.0000000   0.6666667   0.0000000), wk =   0.1111111

                       cryst. coord.
        k(    1) = (   0.0000000   0.0000000   0.0000000), wk =   0.0555556
        k(    2) = (  -0.0000000   0.1666667   0.0000000), wk =   0.3333333
        k(    3) = (  -0.0000000   0.3333333   0.0000000), wk =   0.3333333
        k(    4) = (   0.0000000  -0.5000000   0.0000000), wk =   0.1666667
        k(    5) = (   0.1666667   0.1666667   0.0000000), wk =   0.3333333
        k(    6) = (   0.1666667   0.3333333   0.0000000), wk =   0.6666667
        k(    7) = (   0.3333333   0.3333333   0.0000000), wk =   0.1111111

     Dense  grid:  1282343 G-vectors     FFT dimensions: (  90,  90, 400)

     Dynamical RAM for                 wfc:      11.61 MB

     Dynamical RAM for     wfc (w. buffer):      11.61 MB

     Dynamical RAM for           str. fact:       1.63 MB

     Dynamical RAM for           local pot:       0.00 MB

     Dynamical RAM for          nlocal pot:      40.35 MB

     Dynamical RAM for                qrad:       3.21 MB

     Dynamical RAM for          rho,v,vnew:       5.60 MB

     Dynamical RAM for               rhoin:       1.87 MB

     Dynamical RAM for            rho*nmix:      13.05 MB

     Dynamical RAM for           G-vectors:       3.47 MB

     Dynamical RAM for          h,s,v(r/c):       2.38 MB

     Dynamical RAM for          <psi|beta>:       0.69 MB

     Dynamical RAM for                 psi:      23.23 MB

     Dynamical RAM for                hpsi:      23.23 MB

     Dynamical RAM for      wfcinit/wfcrot:      23.53 MB

     Estimated static dynamical RAM per process >      75.43 MB

     Estimated max dynamical RAM per process >     138.01 MB

     Estimated total dynamical RAM >      47.17 GB

     Initial potential from superposition of free atoms

     starting charge     189.1494, renormalised to     190.0000

     negative rho (up, down):  1.606E-03 0.000E+00
     Starting wfcs are random

     total cpu time spent up to now is        3.7 secs

     per-process dynamical memory:   232.3 Mb

     Self-consistent Calculation

     iteration #  1     ecut=   100.00 Ry     beta= 0.70
     Davidson diagonalization with overlap

---- Real-time Memory Report at c_bands before calling an iterative solver
           271 MiB given to the printing process from OS
           226 MiB allocation reported by mallinfo(arena+hblkhd)
        298159 MiB available memory on the node where the printing process lives
------------------
     c_bands:  1 eigenvalues not converged
     ethr =  1.00E-02,  avg # of iterations = 19.3

     Threshold (ethr) on eigenvalues was too large:
     Diagonalizing with lowered threshold

     Davidson diagonalization with overlap

---- Real-time Memory Report at c_bands before calling an iterative solver
           313 MiB given to the printing process from OS
           226 MiB allocation reported by mallinfo(arena+hblkhd)
        299221 MiB available memory on the node where the printing process lives
------------------
     c_bands:  5 eigenvalues not converged
     ethr =  4.45E-04,  avg # of iterations = 17.1

     negative rho (up, down):  1.629E-04 0.000E+00

     total cpu time spent up to now is       17.7 secs

     WARNING: integrated charge=   190.00010637, expected=   190.00000000

     total energy              =   -1117.93326283 Ry
     estimated scf accuracy    <       0.66913314 Ry

     iteration #  2     ecut=   100.00 Ry     beta= 0.70
     Davidson diagonalization with overlap

---- Real-time Memory Report at c_bands before calling an iterative solver
           313 MiB given to the printing process from OS
           230 MiB allocation reported by mallinfo(arena+hblkhd)
        299243 MiB available memory on the node where the printing process lives
------------------
     ethr =  3.52E-04,  avg # of iterations =  4.3
     Minimization algorithm failed to find Fermi energy: reverting to bisection
     Possible cause: smearing is larger than the electronic band-gap.

     negative rho (up, down):  9.976E-05 0.000E+00

     total cpu time spent up to now is       20.4 secs

     WARNING: integrated charge=   190.00007212, expected=   190.00000000

     total energy              =   -1117.99212608 Ry
     estimated scf accuracy    <       0.87531455 Ry

     iteration #  3     ecut=   100.00 Ry     beta= 0.70
     Davidson diagonalization with overlap

---- Real-time Memory Report at c_bands before calling an iterative solver
           313 MiB given to the printing process from OS
           232 MiB allocation reported by mallinfo(arena+hblkhd)
        299311 MiB available memory on the node where the printing process lives
------------------
     ethr =  3.52E-04,  avg # of iterations =  4.1

     negative rho (up, down):  5.754E-05 0.000E+00

     total cpu time spent up to now is       22.8 secs

     WARNING: integrated charge=   190.00007762, expected=   190.00000000

     total energy              =   -1118.16325563 Ry
     estimated scf accuracy    <       0.27055878 Ry

     iteration #  4     ecut=   100.00 Ry     beta= 0.70
     Davidson diagonalization with overlap

---- Real-time Memory Report at c_bands before calling an iterative solver
           316 MiB given to the printing process from OS
           233 MiB allocation reported by mallinfo(arena+hblkhd)
        299311 MiB available memory on the node where the printing process lives
------------------
     ethr =  1.42E-04,  avg # of iterations =  3.1

     negative rho (up, down):  3.278E-05 0.000E+00

     total cpu time spent up to now is       25.1 secs

     WARNING: integrated charge=   190.00081391, expected=   190.00000000

     total energy              =   -1118.21208872 Ry
     estimated scf accuracy    <       0.03756134 Ry

     iteration #  5     ecut=   100.00 Ry     beta= 0.70
     Davidson diagonalization with overlap

---- Real-time Memory Report at c_bands before calling an iterative solver
           320 MiB given to the printing process from OS
           235 MiB allocation reported by mallinfo(arena+hblkhd)
        299301 MiB available memory on the node where the printing process lives
------------------
     ethr =  1.98E-05,  avg # of iterations = 11.7

     negative rho (up, down):  7.903E-06 0.000E+00

     total cpu time spent up to now is       29.1 secs

     WARNING: integrated charge=   190.00100721, expected=   190.00000000

     total energy              =   -1118.22388495 Ry
     estimated scf accuracy    <       0.00985103 Ry

     iteration #  6     ecut=   100.00 Ry     beta= 0.70
     Davidson diagonalization with overlap

---- Real-time Memory Report at c_bands before calling an iterative solver
           321 MiB given to the printing process from OS
           237 MiB allocation reported by mallinfo(arena+hblkhd)
        299317 MiB available memory on the node where the printing process lives
------------------
     ethr =  5.18E-06,  avg # of iterations =  9.0

     negative rho (up, down):  5.759E-07 0.000E+00

     total cpu time spent up to now is       32.8 secs

     WARNING: integrated charge=   190.00093639, expected=   190.00000000

     total energy              =   -1118.22642340 Ry
     estimated scf accuracy    <       0.00054970 Ry

     iteration #  7     ecut=   100.00 Ry     beta= 0.70
     Davidson diagonalization with overlap

---- Real-time Memory Report at c_bands before calling an iterative solver
           322 MiB given to the printing process from OS
           238 MiB allocation reported by mallinfo(arena+hblkhd)
        299272 MiB available memory on the node where the printing process lives
------------------
     ethr =  2.89E-07,  avg # of iterations = 15.3

     total cpu time spent up to now is       38.8 secs

     WARNING: integrated charge=   190.00085389, expected=   190.00000000

     total energy              =   -1118.22712552 Ry
     estimated scf accuracy    <       0.00011039 Ry

     iteration #  8     ecut=   100.00 Ry     beta= 0.70
     Davidson diagonalization with overlap

---- Real-time Memory Report at c_bands before calling an iterative solver
           325 MiB given to the printing process from OS
           240 MiB allocation reported by mallinfo(arena+hblkhd)
        299240 MiB available memory on the node where the printing process lives
------------------
     ethr =  5.81E-08,  avg # of iterations = 12.1

     negative rho (up, down):  3.786E-07 0.000E+00

     total cpu time spent up to now is       42.5 secs

     WARNING: integrated charge=   190.00080000, expected=   190.00000000

     total energy              =   -1118.22717881 Ry
     estimated scf accuracy    <       0.00001277 Ry

     iteration #  9     ecut=   100.00 Ry     beta= 0.70
     Davidson diagonalization with overlap

---- Real-time Memory Report at c_bands before calling an iterative solver
           327 MiB given to the printing process from OS
           242 MiB allocation reported by mallinfo(arena+hblkhd)
        299217 MiB available memory on the node where the printing process lives
------------------
     ethr =  6.72E-09,  avg # of iterations = 15.1

     negative rho (up, down):  2.178E-07 0.000E+00

     total cpu time spent up to now is       47.8 secs

     WARNING: integrated charge=   190.00080731, expected=   190.00000000

     total energy              =   -1118.22719206 Ry
     estimated scf accuracy    <       0.00000570 Ry

     iteration # 10     ecut=   100.00 Ry     beta= 0.70
     Davidson diagonalization with overlap

---- Real-time Memory Report at c_bands before calling an iterative solver
           329 MiB given to the printing process from OS
           243 MiB allocation reported by mallinfo(arena+hblkhd)
        299221 MiB available memory on the node where the printing process lives
------------------
     ethr =  3.00E-09,  avg # of iterations =  8.6

     total cpu time spent up to now is       51.3 secs

     WARNING: integrated charge=   190.00081375, expected=   190.00000000

     total energy              =   -1118.22719280 Ry
     estimated scf accuracy    <       0.00000026 Ry

     iteration # 11     ecut=   100.00 Ry     beta= 0.70
     Davidson diagonalization with overlap

---- Real-time Memory Report at c_bands before calling an iterative solver
           331 MiB given to the printing process from OS
           243 MiB allocation reported by mallinfo(arena+hblkhd)
        299205 MiB available memory on the node where the printing process lives
------------------
     c_bands:  1 eigenvalues not converged
     ethr =  1.39E-10,  avg # of iterations = 19.7

     total cpu time spent up to now is       56.9 secs

     WARNING: integrated charge=   190.00081289, expected=   190.00000000

     total energy              =   -1118.22719300 Ry
     estimated scf accuracy    <       0.00000017 Ry

     iteration # 12     ecut=   100.00 Ry     beta= 0.70
     Davidson diagonalization with overlap

---- Real-time Memory Report at c_bands before calling an iterative solver
           331 MiB given to the printing process from OS
           243 MiB allocation reported by mallinfo(arena+hblkhd)
        299233 MiB available memory on the node where the printing process lives
------------------
     ethr =  8.99E-11,  avg # of iterations =  9.4

     total cpu time spent up to now is       60.5 secs

     WARNING: integrated charge=   190.00081325, expected=   190.00000000

     total energy              =   -1118.22719308 Ry
     estimated scf accuracy    <          2.1E-09 Ry

     iteration # 13     ecut=   100.00 Ry     beta= 0.70
     Davidson diagonalization with overlap

---- Real-time Memory Report at c_bands before calling an iterative solver
           332 MiB given to the printing process from OS
           243 MiB allocation reported by mallinfo(arena+hblkhd)
        299197 MiB available memory on the node where the printing process lives
------------------
     c_bands:  5 eigenvalues not converged
     ethr =  1.11E-12,  avg # of iterations = 20.0

     total cpu time spent up to now is       67.0 secs

     WARNING: integrated charge=   190.00081357, expected=   190.00000000

     total energy              =   -1118.22719309 Ry
     estimated scf accuracy    <          3.1E-09 Ry

     iteration # 14     ecut=   100.00 Ry     beta= 0.70
     Davidson diagonalization with overlap

---- Real-time Memory Report at c_bands before calling an iterative solver
           332 MiB given to the printing process from OS
           243 MiB allocation reported by mallinfo(arena+hblkhd)
        299251 MiB available memory on the node where the printing process lives
------------------
     ethr =  1.11E-12,  avg # of iterations = 12.1

     total cpu time spent up to now is       70.9 secs

     WARNING: integrated charge=   190.00081384, expected=   190.00000000

     total energy              =   -1118.22719309 Ry
     estimated scf accuracy    <          2.1E-10 Ry

     iteration # 15     ecut=   100.00 Ry     beta= 0.70
     Davidson diagonalization with overlap

---- Real-time Memory Report at c_bands before calling an iterative solver
           332 MiB given to the printing process from OS
           243 MiB allocation reported by mallinfo(arena+hblkhd)
        299247 MiB available memory on the node where the printing process lives
------------------
     c_bands:  1 eigenvalues not converged
     ethr =  1.13E-13,  avg # of iterations = 15.1

     total cpu time spent up to now is       75.1 secs

     WARNING: integrated charge=   190.00081382, expected=   190.00000000

     total energy              =   -1118.22719308 Ry
     estimated scf accuracy    <          1.9E-10 Ry

     iteration # 16     ecut=   100.00 Ry     beta= 0.70
     Davidson diagonalization with overlap

---- Real-time Memory Report at c_bands before calling an iterative solver
           332 MiB given to the printing process from OS
           243 MiB allocation reported by mallinfo(arena+hblkhd)
        299270 MiB available memory on the node where the printing process lives
------------------
     ethr =  1.00E-13,  avg # of iterations =  8.1

     total cpu time spent up to now is       78.1 secs

     WARNING: integrated charge=   190.00081379, expected=   190.00000000

     total energy              =   -1118.22719309 Ry
     estimated scf accuracy    <          4.9E-11 Ry

     iteration # 17     ecut=   100.00 Ry     beta= 0.70
     Davidson diagonalization with overlap

---- Real-time Memory Report at c_bands before calling an iterative solver
           332 MiB given to the printing process from OS
           243 MiB allocation reported by mallinfo(arena+hblkhd)
        299252 MiB available memory on the node where the printing process lives
------------------
     ethr =  1.00E-13,  avg # of iterations =  4.1

     total cpu time spent up to now is       80.4 secs

     WARNING: integrated charge=   190.00081380, expected=   190.00000000

     total energy              =   -1118.22719309 Ry
     estimated scf accuracy    <          1.1E-12 Ry

     iteration # 18     ecut=   100.00 Ry     beta= 0.70
     Davidson diagonalization with overlap

---- Real-time Memory Report at c_bands before calling an iterative solver
           332 MiB given to the printing process from OS
           243 MiB allocation reported by mallinfo(arena+hblkhd)
        299274 MiB available memory on the node where the printing process lives
------------------
     ethr =  1.00E-13,  avg # of iterations =  1.0

     total cpu time spent up to now is       82.0 secs

     End of self-consistent calculation

          k = 0.0000 0.0000 0.0000 (160347 PWs)   bands (ev):

   -55.3820 -55.3820 -55.3046 -55.3046 -55.3046 -55.3046 -31.7461 -31.7460
   -31.5764 -31.5764 -31.5734 -31.5734 -31.5734 -31.5734 -31.4749 -31.4749
   -31.4749 -31.4749 -31.2562 -31.2562 -31.1109 -31.1109 -31.1108 -31.1108
   -16.5852 -16.5672 -16.1734 -15.9909 -15.5536 -15.5536 -15.5142 -15.4950
   -15.4601 -15.4601 -15.2170 -15.1981 -14.8456 -14.8456 -14.8446 -14.8446
    -6.1611  -6.1611  -6.0705  -6.0705  -5.9190  -5.6569  -5.6003  -5.5879
    -5.2671  -5.2444  -5.2444  -5.2214  -5.2214  -4.9750  -4.7998  -4.6771
    -4.6238  -4.6238  -4.2855  -4.2855  -3.8695  -3.7576  -3.6150  -3.6150
    -3.5851  -3.5851  -3.4178  -3.3368  -3.3177  -3.3177  -3.2519  -3.2519
    -3.0568  -3.0568  -2.9642  -2.9522  -2.8730  -2.8730  -2.8520  -2.4384
    -2.2189  -2.2189  -2.1708  -2.1708  -1.4922  -1.4922  -1.4732  -1.4732
    -1.2247  -1.1033  -0.5846  -0.5846  -0.5584  -0.5584   0.4109   0.6368
     1.3637   1.3637   1.3742   1.3742   1.9052   2.1575   2.1840   2.1840
     2.2489   2.2489   2.5450   2.6287   2.6287   2.6476   2.6476   2.6615
     2.7730   2.7730

     occupation numbers 
     1.0000   1.0000   1.0000   1.0000   1.0000   1.0000   1.0000   1.0000
     1.0000   1.0000   1.0000   1.0000   1.0000   1.0000   1.0000   1.0000
     1.0000   1.0000   1.0000   1.0000   1.0000   1.0000   1.0000   1.0000
     1.0000   1.0000   1.0000   1.0000   1.0000   1.0000   1.0000   1.0000
     1.0000   1.0000   1.0000   1.0000   1.0000   1.0000   1.0000   1.0000
     1.0000   1.0000   1.0000   1.0000   1.0000   1.0000   1.0000   1.0000
     1.0000   1.0000   1.0000   1.0000   1.0000   1.0000   1.0000   1.0000
     1.0000   1.0000   1.0000   1.0000   1.0000   1.0000   1.0000   1.0000
     1.0000   1.0000   1.0000   1.0000   1.0000   1.0000   1.0000   1.0000
     1.0000   1.0000   1.0000   1.0000   1.0000   1.0000   1.0000   1.0000
     1.0000   1.0000   1.0000   1.0000   1.0000   1.0000   1.0000   1.0000
     1.0000   1.0000   1.0000   1.0000   1.0000   1.0000   1.0034   0.0014
     0.0000   0.0000   0.0000   0.0000   0.0000   0.0000   0.0000   0.0000
     0.0000   0.0000   0.0000   0.0000   0.0000   0.0000   0.0000   0.0000
     0.0000   0.0000

          k =-0.0962 0.1667 0.0000 (160353 PWs)   bands (ev):

   -55.3818 -55.3818 -55.3047 -55.3047 -55.3046 -55.3046 -31.7431 -31.7431
   -31.5755 -31.5755 -31.5728 -31.5728 -31.5711 -31.5711 -31.4758 -31.4758
   -31.4750 -31.4749 -31.2577 -31.2577 -31.1149 -31.1149 -31.1117 -31.1117
   -16.5659 -16.5521 -16.1460 -15.9639 -15.6021 -15.5550 -15.5265 -15.5103
   -15.4763 -15.4589 -15.2027 -15.1860 -14.8724 -14.8711 -14.8463 -14.8454
    -6.0643  -6.0530  -6.0123  -5.9809  -5.7437  -5.6020  -5.5591  -5.5117
    -5.3329  -5.2711  -5.1839  -5.1651  -5.0490  -4.9297  -4.7679  -4.6473
    -4.6358  -4.5766  -4.3113  -4.3009  -3.8779  -3.8121  -3.7504  -3.7181
    -3.6026  -3.5855  -3.5759  -3.5341  -3.4212  -3.3602  -3.2633  -3.1918
    -3.0887  -3.0547  -3.0306  -2.9955  -2.9074  -2.8397  -2.8376  -2.4687
    -2.4129  -2.3002  -2.2567  -2.1551  -1.7662  -1.7322  -1.5545  -1.5168
    -1.2674  -1.1769  -0.5987  -0.5719  -0.5626  -0.5406   0.3932   0.6675
     1.3819   1.3851   1.3877   1.3884   1.8966   2.0734   2.1315   2.1525
     2.2298   2.2335   2.3729   2.4660   2.4936   2.5614   2.5777   2.6342
     2.8558   2.9263

     occupation numbers 
     1.0000   1.0000   1.0000   1.0000   1.0000   1.0000   1.0000   1.0000
     1.0000   1.0000   1.0000   1.0000   1.0000   1.0000   1.0000   1.0000
     1.0000   1.0000   1.0000   1.0000   1.0000   1.0000   1.0000   1.0000
     1.0000   1.0000   1.0000   1.0000   1.0000   1.0000   1.0000   1.0000
     1.0000   1.0000   1.0000   1.0000   1.0000   1.0000   1.0000   1.0000
     1.0000   1.0000   1.0000   1.0000   1.0000   1.0000   1.0000   1.0000
     1.0000   1.0000   1.0000   1.0000   1.0000   1.0000   1.0000   1.0000
     1.0000   1.0000   1.0000   1.0000   1.0000   1.0000   1.0000   1.0000
     1.0000   1.0000   1.0000   1.0000   1.0000   1.0000   1.0000   1.0000
     1.0000   1.0000   1.0000   1.0000   1.0000   1.0000   1.0000   1.0000
     1.0000   1.0000   1.0000   1.0000   1.0000   1.0000   1.0000   1.0000
     1.0000   1.0000   1.0000   1.0000   1.0000   1.0000   1.0007   0.0000
     0.0000   0.0000   0.0000   0.0000   0.0000   0.0000   0.0000   0.0000
     0.0000   0.0000   0.0000   0.0000   0.0000   0.0000   0.0000   0.0000
     0.0000   0.0000

          k =-0.1925 0.3333 0.0000 (160313 PWs)   bands (ev):

   -55.3816 -55.3816 -55.3050 -55.3050 -55.3046 -55.3046 -31.7371 -31.7371
   -31.5738 -31.5737 -31.5715 -31.5715 -31.5665 -31.5665 -31.4776 -31.4776
   -31.4751 -31.4751 -31.2610 -31.2610 -31.1232 -31.1232 -31.1132 -31.1132
   -16.5282 -16.5220 -16.0582 -15.8835 -15.7359 -15.6094 -15.5578 -15.5282
   -15.4847 -15.4566 -15.1675 -15.1574 -14.9307 -14.9294 -14.8476 -14.8469
    -5.8292  -5.8250  -5.7949  -5.7812  -5.5983  -5.5409  -5.3263  -5.2967
    -5.2413  -5.1446  -5.0631  -5.0430  -4.8188  -4.7819  -4.7265  -4.7078
    -4.6188  -4.4931  -4.4367  -4.3642  -4.0883  -4.0185  -3.9366  -3.8720
    -3.7987  -3.7839  -3.6692  -3.5752  -3.5328  -3.4927  -3.4365  -3.2795
    -3.1929  -3.1742  -3.1586  -3.0938  -2.8666  -2.8208  -2.7512  -2.7426
    -2.5974  -2.4318  -2.3401  -2.2192  -2.2026  -2.1744  -1.6511  -1.6077
    -1.3479  -1.3077  -0.6348  -0.6150  -0.5273  -0.5017   0.3228   0.6614
     1.4114   1.4141   1.4362   1.4577   1.8350   1.9057   2.0245   2.0682
     2.1171   2.1512   2.2642   2.3387   2.4640   2.5459   2.5750   2.5815
     2.7823   2.8660

     occupation numbers 
     1.0000   1.0000   1.0000   1.0000   1.0000   1.0000   1.0000   1.0000
     1.0000   1.0000   1.0000   1.0000   1.0000   1.0000   1.0000   1.0000
     1.0000   1.0000   1.0000   1.0000   1.0000   1.0000   1.0000   1.0000
     1.0000   1.0000   1.0000   1.0000   1.0000   1.0000   1.0000   1.0000
     1.0000   1.0000   1.0000   1.0000   1.0000   1.0000   1.0000   1.0000
     1.0000   1.0000   1.0000   1.0000   1.0000   1.0000   1.0000   1.0000
     1.0000   1.0000   1.0000   1.0000   1.0000   1.0000   1.0000   1.0000
     1.0000   1.0000   1.0000   1.0000   1.0000   1.0000   1.0000   1.0000
     1.0000   1.0000   1.0000   1.0000   1.0000   1.0000   1.0000   1.0000
     1.0000   1.0000   1.0000   1.0000   1.0000   1.0000   1.0000   1.0000
     1.0000   1.0000   1.0000   1.0000   1.0000   1.0000   1.0000   1.0000
     1.0000   1.0000   1.0000   1.0000   1.0000   1.0000   1.0000   0.0001
     0.0000   0.0000   0.0000   0.0000   0.0000   0.0000   0.0000   0.0000
     0.0000   0.0000   0.0000   0.0000   0.0000   0.0000   0.0000   0.0000
     0.0000   0.0000

          k = 0.2887-0.5000 0.0000 (160226 PWs)   bands (ev):

   -55.3815 -55.3815 -55.3051 -55.3051 -55.3046 -55.3046 -31.7341 -31.7341
   -31.5729 -31.5728 -31.5708 -31.5708 -31.5642 -31.5641 -31.4786 -31.4786
   -31.4751 -31.4751 -31.2627 -31.2627 -31.1274 -31.1274 -31.1140 -31.1140
   -16.5100 -16.5071 -15.9204 -15.9049 -15.7665 -15.7268 -15.5591 -15.5317
   -15.4866 -15.4555 -15.1423 -15.1390 -14.9662 -14.9632 -14.8483 -14.8477
    -5.6907  -5.6818  -5.6762  -5.6736  -5.5629  -5.4184  -5.2487  -5.2342
    -5.1337  -5.0011  -4.9912  -4.9138  -4.7170  -4.7139  -4.6733  -4.6597
    -4.5668  -4.5464  -4.4537  -4.3837  -4.2159  -4.2001  -4.1232  -4.0283
    -3.9324  -3.8842  -3.6390  -3.6265  -3.6204  -3.5156  -3.5098  -3.4473
    -3.4079  -3.2731  -3.2021  -3.1689  -2.8128  -2.8116  -2.7288  -2.7039
    -2.6039  -2.4648  -2.4234  -2.4033  -2.3965  -2.2603  -1.6923  -1.6443
    -1.3769  -1.3732  -0.6546  -0.6476  -0.5024  -0.4947   0.2751   0.6365
     1.4286   1.4306   1.4769   1.5034   1.7710   1.8466   1.9173   2.0453
     2.0762   2.1523   2.2220   2.2888   2.4731   2.5554   2.5571   2.6133
     2.6796   2.8512

     occupation numbers 
     1.0000   1.0000   1.0000   1.0000   1.0000   1.0000   1.0000   1.0000
     1.0000   1.0000   1.0000   1.0000   1.0000   1.0000   1.0000   1.0000
     1.0000   1.0000   1.0000   1.0000   1.0000   1.0000   1.0000   1.0000
     1.0000   1.0000   1.0000   1.0000   1.0000   1.0000   1.0000   1.0000
     1.0000   1.0000   1.0000   1.0000   1.0000   1.0000   1.0000   1.0000
     1.0000   1.0000   1.0000   1.0000   1.0000   1.0000   1.0000   1.0000
     1.0000   1.0000   1.0000   1.0000   1.0000   1.0000   1.0000   1.0000
     1.0000   1.0000   1.0000   1.0000   1.0000   1.0000   1.0000   1.0000
     1.0000   1.0000   1.0000   1.0000   1.0000   1.0000   1.0000   1.0000
     1.0000   1.0000   1.0000   1.0000   1.0000   1.0000   1.0000   1.0000
     1.0000   1.0000   1.0000   1.0000   1.0000   1.0000   1.0000   1.0000
     1.0000   1.0000   1.0000   1.0000   1.0000   1.0000   1.0000   0.0015
     0.0000   0.0000   0.0000   0.0000   0.0000   0.0000   0.0000   0.0000
     0.0000   0.0000   0.0000   0.0000   0.0000   0.0000   0.0000   0.0000
     0.0000   0.0000

          k =-0.0000 0.3333 0.0000 (160321 PWs)   bands (ev):

   -55.3817 -55.3817 -55.3049 -55.3049 -55.3046 -55.3046 -31.7386 -31.7386
   -31.5742 -31.5741 -31.5716 -31.5716 -31.5680 -31.5680 -31.4770 -31.4770
   -31.4752 -31.4752 -31.2601 -31.2601 -31.1206 -31.1206 -31.1133 -31.1133
   -16.5376 -16.5295 -16.0880 -15.9096 -15.6605 -15.6285 -15.5473 -15.5290
   -15.4909 -15.4410 -15.1773 -15.1649 -14.9200 -14.9188 -14.8430 -14.8423
    -5.9050  -5.8779  -5.8771  -5.8212  -5.5491  -5.5473  -5.4727  -5.3660
    -5.2658  -5.1804  -5.1631  -4.9875  -4.9359  -4.8398  -4.7325  -4.6765
    -4.6157  -4.4722  -4.3749  -4.3684  -4.0343  -3.9878  -3.8562  -3.8357
    -3.7295  -3.7205  -3.6608  -3.6000  -3.5854  -3.5300  -3.3183  -3.1688
    -3.1433  -3.0670  -3.0292  -3.0199  -2.9581  -2.9334  -2.7430  -2.6539
    -2.5386  -2.4799  -2.3696  -2.2515  -2.0170  -2.0044  -1.7073  -1.6494
    -1.2931  -1.2579  -0.6229  -0.6157  -0.5234  -0.5146   0.3583   0.6874
     1.3425   1.3443   1.4828   1.4829   1.8871   1.9904   2.0565   2.0590
     2.1079   2.2045   2.2946   2.3590   2.4287   2.4517   2.5439   2.6505
     2.8597   2.8786

     occupation numbers 
     1.0000   1.0000   1.0000   1.0000   1.0000   1.0000   1.0000   1.0000
     1.0000   1.0000   1.0000   1.0000   1.0000   1.0000   1.0000   1.0000
     1.0000   1.0000   1.0000   1.0000   1.0000   1.0000   1.0000   1.0000
     1.0000   1.0000   1.0000   1.0000   1.0000   1.0000   1.0000   1.0000
     1.0000   1.0000   1.0000   1.0000   1.0000   1.0000   1.0000   1.0000
     1.0000   1.0000   1.0000   1.0000   1.0000   1.0000   1.0000   1.0000
     1.0000   1.0000   1.0000   1.0000   1.0000   1.0000   1.0000   1.0000
     1.0000   1.0000   1.0000   1.0000   1.0000   1.0000   1.0000   1.0000
     1.0000   1.0000   1.0000   1.0000   1.0000   1.0000   1.0000   1.0000
     1.0000   1.0000   1.0000   1.0000   1.0000   1.0000   1.0000   1.0000
     1.0000   1.0000   1.0000   1.0000   1.0000   1.0000   1.0000   1.0000
     1.0000   1.0000   1.0000   1.0000   1.0000   1.0000   1.0000   0.0000
     0.0000   0.0000   0.0000   0.0000   0.0000   0.0000   0.0000   0.0000
     0.0000   0.0000   0.0000   0.0000   0.0000   0.0000   0.0000   0.0000
     0.0000   0.0000

          k =-0.0962 0.5000 0.0000 (160239 PWs)   bands (ev):

   -55.3815 -55.3815 -55.3051 -55.3051 -55.3046 -55.3046 -31.7341 -31.7341
   -31.5728 -31.5727 -31.5699 -31.5699 -31.5653 -31.5653 -31.4780 -31.4780
   -31.4756 -31.4756 -31.2626 -31.2626 -31.1262 -31.1262 -31.1152 -31.1152
   -16.5104 -16.5073 -15.9692 -15.8252 -15.7841 -15.6768 -15.6458 -15.5553
   -15.4654 -15.4271 -15.1399 -15.1347 -14.9792 -14.9789 -14.8391 -14.8368
    -5.7369  -5.7304  -5.6495  -5.6015  -5.5154  -5.3703  -5.3223  -5.2609
    -5.1480  -5.0852  -4.9594  -4.8543  -4.7782  -4.6900  -4.6656  -4.6148
    -4.5758  -4.5256  -4.4992  -4.4312  -4.2059  -4.1703  -4.0690  -3.9962
    -3.9491  -3.8637  -3.7922  -3.7177  -3.6055  -3.5542  -3.4581  -3.3894
    -3.3246  -3.2463  -3.0321  -3.0266  -2.8821  -2.8649  -2.8234  -2.7930
    -2.5932  -2.5294  -2.4640  -2.3373  -2.3110  -2.2131  -1.8496  -1.7692
    -1.3129  -1.3040  -0.6525  -0.6456  -0.5255  -0.5050   0.3244   0.6945
     1.3163   1.3224   1.5676   1.5764   1.8604   1.8717   1.9537   2.0638
     2.0825   2.1494   2.2021   2.2548   2.3237   2.3938   2.5658   2.6732
     2.8557   2.8890

     occupation numbers 
     1.0000   1.0000   1.0000   1.0000   1.0000   1.0000   1.0000   1.0000
     1.0000   1.0000   1.0000   1.0000   1.0000   1.0000   1.0000   1.0000
     1.0000   1.0000   1.0000   1.0000   1.0000   1.0000   1.0000   1.0000
     1.0000   1.0000   1.0000   1.0000   1.0000   1.0000   1.0000   1.0000
     1.0000   1.0000   1.0000   1.0000   1.0000   1.0000   1.0000   1.0000
     1.0000   1.0000   1.0000   1.0000   1.0000   1.0000   1.0000   1.0000
     1.0000   1.0000   1.0000   1.0000   1.0000   1.0000   1.0000   1.0000
     1.0000   1.0000   1.0000   1.0000   1.0000   1.0000   1.0000   1.0000
     1.0000   1.0000   1.0000   1.0000   1.0000   1.0000   1.0000   1.0000
     1.0000   1.0000   1.0000   1.0000   1.0000   1.0000   1.0000   1.0000
     1.0000   1.0000   1.0000   1.0000   1.0000   1.0000   1.0000   1.0000
     1.0000   1.0000   1.0000   1.0000   1.0000   1.0000   1.0000   0.0000
     0.0000   0.0000   0.0000   0.0000   0.0000   0.0000   0.0000   0.0000
     0.0000   0.0000   0.0000   0.0000   0.0000   0.0000   0.0000   0.0000
     0.0000   0.0000

          k =-0.0000 0.6667 0.0000 (160113 PWs)   bands (ev):

   -55.3814 -55.3814 -55.3051 -55.3051 -55.3046 -55.3046 -31.7325 -31.7325
   -31.5723 -31.5722 -31.5676 -31.5676 -31.5663 -31.5663 -31.4776 -31.4776
   -31.4766 -31.4766 -31.2633 -31.2633 -31.1269 -31.1269 -31.1171 -31.1171
   -16.5022 -16.5002 -15.8503 -15.8252 -15.8252 -15.6814 -15.6814 -15.6516
   -15.4244 -15.4244 -15.1137 -15.1137 -15.0187 -15.0187 -14.8316 -14.8279
    -5.7136  -5.7027  -5.4592  -5.4592  -5.3907  -5.3771  -5.3771  -5.1433
    -5.1433  -5.1340  -4.9562  -4.7489  -4.7489  -4.7146  -4.6330  -4.6330
    -4.5035  -4.4329  -4.4329  -4.3360  -4.3360  -4.2747  -4.1321  -4.1321
    -3.9722  -3.8754  -3.8754  -3.7978  -3.7978  -3.6741  -3.4001  -3.3841
    -3.3841  -3.1856  -3.0636  -3.0636  -2.9323  -2.9323  -2.8367  -2.8120
    -2.5226  -2.5226  -2.4282  -2.4282  -2.2841  -2.2841  -2.0464  -1.9103
    -1.2864  -1.2710  -0.6484  -0.6484  -0.5470  -0.5470   0.3570   0.7477
     1.2590   1.2590   1.6325   1.6325   1.7957   2.0200   2.0200   2.1059
     2.1059   2.1373   2.1373   2.1608   2.1761   2.1761   2.6124   2.7151
     3.0038   3.0208

     occupation numbers 
     1.0000   1.0000   1.0000   1.0000   1.0000   1.0000   1.0000   1.0000
     1.0000   1.0000   1.0000   1.0000   1.0000   1.0000   1.0000   1.0000
     1.0000   1.0000   1.0000   1.0000   1.0000   1.0000   1.0000   1.0000
     1.0000   1.0000   1.0000   1.0000   1.0000   1.0000   1.0000   1.0000
     1.0000   1.0000   1.0000   1.0000   1.0000   1.0000   1.0000   1.0000
     1.0000   1.0000   1.0000   1.0000   1.0000   1.0000   1.0000   1.0000
     1.0000   1.0000   1.0000   1.0000   1.0000   1.0000   1.0000   1.0000
     1.0000   1.0000   1.0000   1.0000   1.0000   1.0000   1.0000   1.0000
     1.0000   1.0000   1.0000   1.0000   1.0000   1.0000   1.0000   1.0000
     1.0000   1.0000   1.0000   1.0000   1.0000   1.0000   1.0000   1.0000
     1.0000   1.0000   1.0000   1.0000   1.0000   1.0000   1.0000   1.0000
     1.0000   1.0000   1.0000   1.0000   1.0000   1.0000   1.0000   0.0000
     0.0000   0.0000   0.0000   0.0000   0.0000   0.0000   0.0000   0.0000
     0.0000   0.0000   0.0000   0.0000   0.0000   0.0000   0.0000   0.0000
     0.0000   0.0000

     the Fermi energy is     0.5512 ev

     WARNING: integrated charge=   190.00081380, expected=   190.00000000

!    total energy              =   -1118.22719309 Ry
     estimated scf accuracy    <          4.1E-13 Ry
     smearing contrib. (-TS)   =       0.00000235 Ry
     internal energy E=F+TS    =   -1118.22719544 Ry

     convergence has been achieved in  18 iterations

     Forces acting on atoms (cartesian axes, Ry/au):

     atom    1 type  1   force =     0.00344211   -0.00000000    0.00177163
     atom    2 type  1   force =    -0.00172105    0.00298095    0.00177163
     atom    3 type  1   force =    -0.00172105   -0.00298095    0.00177163
     atom    4 type  1   force =    -0.00344211   -0.00000000   -0.00177163
     atom    5 type  1   force =     0.00172105   -0.00298095   -0.00177163
     atom    6 type  1   force =     0.00172105    0.00298095   -0.00177163
     atom    7 type  2   force =     0.00000000    0.00000000   -0.00975036
     atom    8 type  2   force =    -0.00231952   -0.00000000   -0.00156400
     atom    9 type  2   force =     0.00115976   -0.00200877   -0.00156400
     atom   10 type  2   force =     0.00115976    0.00200877   -0.00156400
     atom   11 type  2   force =     0.00000000    0.00000000    0.00089428
     atom   12 type  2   force =    -0.00101746    0.00000000    0.00172730
     atom   13 type  2   force =     0.00050873   -0.00088115    0.00172730
     atom   14 type  2   force =     0.00050873    0.00088115    0.00172730
     atom   15 type  2   force =     0.00101746   -0.00000000   -0.00172730
     atom   16 type  2   force =    -0.00050873    0.00088115   -0.00172730
     atom   17 type  2   force =    -0.00050873   -0.00088115   -0.00172730
     atom   18 type  2   force =     0.00000000    0.00000000   -0.00089428
     atom   19 type  2   force =     0.00231952   -0.00000000    0.00156400
     atom   20 type  2   force =    -0.00115976    0.00200877    0.00156400
     atom   21 type  2   force =    -0.00115976   -0.00200877    0.00156400
     atom   22 type  2   force =     0.00000000    0.00000000    0.00975036
     The non-local contrib.  to forces
     atom    1 type  1   force =    -0.20338826   -0.00000000   -0.03821290
     atom    2 type  1   force =     0.10169413   -0.17613940   -0.03821290
     atom    3 type  1   force =     0.10169413    0.17613940   -0.03821290
     atom    4 type  1   force =     0.20338826   -0.00000000    0.03821290
     atom    5 type  1   force =    -0.10169413    0.17613940    0.03821290
     atom    6 type  1   force =    -0.10169413   -0.17613940    0.03821290
     atom    7 type  2   force =     0.00000000    0.00000000    0.23112483
     atom    8 type  2   force =    -0.09056293    0.00000000    0.13650155
     atom    9 type  2   force =     0.04528146   -0.07842980    0.13650155
     atom   10 type  2   force =     0.04528146    0.07842980    0.13650155
     atom   11 type  2   force =     0.00000000   -0.00000000   -0.15353152
     atom   12 type  2   force =     0.11292407    0.00000000   -0.15872450
     atom   13 type  2   force =    -0.05646203    0.09779511   -0.15872450
     atom   14 type  2   force =    -0.05646203   -0.09779511   -0.15872450
     atom   15 type  2   force =    -0.11292407    0.00000000    0.15872450
     atom   16 type  2   force =     0.05646203   -0.09779511    0.15872450
     atom   17 type  2   force =     0.05646203    0.09779511    0.15872450
     atom   18 type  2   force =    -0.00000000    0.00000000    0.15353152
     atom   19 type  2   force =     0.09056293    0.00000000   -0.13650155
     atom   20 type  2   force =    -0.04528146    0.07842980   -0.13650155
     atom   21 type  2   force =    -0.04528146   -0.07842980   -0.13650155
     atom   22 type  2   force =     0.00000000    0.00000000   -0.23112483
     The ionic contribution  to forces
     atom    1 type  1   force =     9.84688280    0.00000000  -60.73861949
     atom    2 type  1   force =    -4.92344140    8.52765065  -60.73861949
     atom    3 type  1   force =    -4.92344140   -8.52765065  -60.73861949
     atom    4 type  1   force =    -9.84688280   -0.00000000   60.73861949
     atom    5 type  1   force =     4.92344140   -8.52765065   60.73861949
     atom    6 type  1   force =     4.92344140    8.52765065   60.73861949
     atom    7 type  2   force =     0.00000000   -0.00000000  -64.72069576
     atom    8 type  2   force =     2.85061680   -0.00000000  -53.97303751
     atom    9 type  2   force =    -1.42530840    2.46870657  -53.97303751
     atom   10 type  2   force =    -1.42530840   -2.46870657  -53.97303751
     atom   11 type  2   force =     0.00000000    0.00000000  -10.15531503
     atom   12 type  2   force =    -6.21729849   -0.00000000   -6.10778790
     atom   13 type  2   force =     3.10864925   -5.38433844   -6.10778790
     atom   14 type  2   force =     3.10864925    5.38433844   -6.10778790
     atom   15 type  2   force =     6.21729849    0.00000000    6.10778790
     atom   16 type  2   force =    -3.10864925    5.38433844    6.10778790
     atom   17 type  2   force =    -3.10864925   -5.38433844    6.10778790
     atom   18 type  2   force =    -0.00000000   -0.00000000   10.15531503
     atom   19 type  2   force =    -2.85061680    0.00000000   53.97303751
     atom   20 type  2   force =     1.42530840   -2.46870657   53.97303751
     atom   21 type  2   force =     1.42530840    2.46870657   53.97303751
     atom   22 type  2   force =    -0.00000000    0.00000000   64.72069576
     The local contribution  to forces
     atom    1 type  1   force =    -9.63842633   -0.00000000   60.77611555
     atom    2 type  1   force =     4.81921317   -8.34712205   60.77611555
     atom    3 type  1   force =     4.81921317    8.34712205   60.77611555
     atom    4 type  1   force =     9.63842633    0.00000000  -60.77611555
     atom    5 type  1   force =    -4.81921317    8.34712205  -60.77611555
     atom    6 type  1   force =    -4.81921317   -8.34712205  -60.77611555
     atom    7 type  2   force =     0.00000000   -0.00000000   64.47839612
     atom    8 type  2   force =    -2.76301818   -0.00000000   53.83357056
     atom    9 type  2   force =     1.38150909   -2.39284394   53.83357056
     atom   10 type  2   force =     1.38150909    2.39284394   53.83357056
     atom   11 type  2   force =     0.00000000   -0.00000000   10.30664814
     atom   12 type  2   force =     6.10417099   -0.00000000    6.26778263
     atom   13 type  2   force =    -3.05208549    5.28636715    6.26778263
     atom   14 type  2   force =    -3.05208549   -5.28636715    6.26778263
     atom   15 type  2   force =    -6.10417099    0.00000000   -6.26778263
     atom   16 type  2   force =     3.05208549   -5.28636715   -6.26778263
     atom   17 type  2   force =     3.05208549    5.28636715   -6.26778263
     atom   18 type  2   force =    -0.00000000    0.00000000  -10.30664814
     atom   19 type  2   force =     2.76301818    0.00000000  -53.83357056
     atom   20 type  2   force =    -1.38150909    2.39284394  -53.83357056
     atom   21 type  2   force =    -1.38150909   -2.39284394  -53.83357056
     atom   22 type  2   force =    -0.00000000    0.00000000  -64.47839612
     The core correction contribution to forces
     atom    1 type  1   force =     0.00000000    0.00000000    0.00000000
     atom    2 type  1   force =     0.00000000    0.00000000    0.00000000
     atom    3 type  1   force =     0.00000000    0.00000000    0.00000000
     atom    4 type  1   force =     0.00000000    0.00000000    0.00000000
     atom    5 type  1   force =     0.00000000    0.00000000    0.00000000
     atom    6 type  1   force =     0.00000000    0.00000000    0.00000000
     atom    7 type  2   force =     0.00000000    0.00000000    0.00000000
     atom    8 type  2   force =     0.00000000    0.00000000    0.00000000
     atom    9 type  2   force =     0.00000000    0.00000000    0.00000000
     atom   10 type  2   force =     0.00000000    0.00000000    0.00000000
     atom   11 type  2   force =     0.00000000    0.00000000    0.00000000
     atom   12 type  2   force =     0.00000000    0.00000000    0.00000000
     atom   13 type  2   force =     0.00000000    0.00000000    0.00000000
     atom   14 type  2   force =     0.00000000    0.00000000    0.00000000
     atom   15 type  2   force =     0.00000000    0.00000000    0.00000000
     atom   16 type  2   force =     0.00000000    0.00000000    0.00000000
     atom   17 type  2   force =     0.00000000    0.00000000    0.00000000
     atom   18 type  2   force =     0.00000000    0.00000000    0.00000000
     atom   19 type  2   force =     0.00000000    0.00000000    0.00000000
     atom   20 type  2   force =     0.00000000    0.00000000    0.00000000
     atom   21 type  2   force =     0.00000000    0.00000000    0.00000000
     atom   22 type  2   force =     0.00000000    0.00000000    0.00000000
     The Hubbard contrib.    to forces
     atom    1 type  1   force =     0.00000000    0.00000000    0.00000000
     atom    2 type  1   force =     0.00000000    0.00000000    0.00000000
     atom    3 type  1   force =     0.00000000    0.00000000    0.00000000
     atom    4 type  1   force =     0.00000000    0.00000000    0.00000000
     atom    5 type  1   force =     0.00000000    0.00000000    0.00000000
     atom    6 type  1   force =     0.00000000    0.00000000    0.00000000
     atom    7 type  2   force =     0.00000000    0.00000000    0.00000000
     atom    8 type  2   force =     0.00000000    0.00000000    0.00000000
     atom    9 type  2   force =     0.00000000    0.00000000    0.00000000
     atom   10 type  2   force =     0.00000000    0.00000000    0.00000000
     atom   11 type  2   force =     0.00000000    0.00000000    0.00000000
     atom   12 type  2   force =     0.00000000    0.00000000    0.00000000
     atom   13 type  2   force =     0.00000000    0.00000000    0.00000000
     atom   14 type  2   force =     0.00000000    0.00000000    0.00000000
     atom   15 type  2   force =     0.00000000    0.00000000    0.00000000
     atom   16 type  2   force =     0.00000000    0.00000000    0.00000000
     atom   17 type  2   force =     0.00000000    0.00000000    0.00000000
     atom   18 type  2   force =     0.00000000    0.00000000    0.00000000
     atom   19 type  2   force =     0.00000000    0.00000000    0.00000000
     atom   20 type  2   force =     0.00000000    0.00000000    0.00000000
     atom   21 type  2   force =     0.00000000    0.00000000    0.00000000
     atom   22 type  2   force =     0.00000000    0.00000000    0.00000000
     The SCF correction term to forces
     atom    1 type  1   force =    -0.00000010    0.00000000    0.00000121
     atom    2 type  1   force =     0.00000005   -0.00000009    0.00000121
     atom    3 type  1   force =     0.00000005    0.00000009    0.00000121
     atom    4 type  1   force =     0.00000010    0.00000000   -0.00000121
     atom    5 type  1   force =    -0.00000005    0.00000009   -0.00000121
     atom    6 type  1   force =    -0.00000005   -0.00000009   -0.00000121
     atom    7 type  2   force =    -0.00000000   -0.00000000    0.00000045
     atom    8 type  2   force =    -0.00000011   -0.00000000    0.00000066
     atom    9 type  2   force =     0.00000006   -0.00000010    0.00000066
     atom   10 type  2   force =     0.00000006    0.00000010    0.00000066
     atom   11 type  2   force =    -0.00000000    0.00000000    0.00000031
     atom   12 type  2   force =     0.00000015    0.00000000    0.00000025
     atom   13 type  2   force =    -0.00000008    0.00000013    0.00000025
     atom   14 type  2   force =    -0.00000008   -0.00000013    0.00000025
     atom   15 type  2   force =    -0.00000015   -0.00000000   -0.00000025
     atom   16 type  2   force =     0.00000008   -0.00000013   -0.00000025
     atom   17 type  2   force =     0.00000008    0.00000013   -0.00000025
     atom   18 type  2   force =     0.00000000    0.00000000   -0.00000031
     atom   19 type  2   force =     0.00000011   -0.00000000   -0.00000066
     atom   20 type  2   force =    -0.00000006    0.00000010   -0.00000066
     atom   21 type  2   force =    -0.00000006   -0.00000010   -0.00000066
     atom   22 type  2   force =    -0.00000000    0.00000000   -0.00000045

     DFT-D3 dispersion contribution to forces:
     atom    1 type  1   force =    -0.00162600   -0.00000000    0.00248727
     atom    2 type  1   force =     0.00081300   -0.00140816    0.00248727
     atom    3 type  1   force =     0.00081300    0.00140816    0.00248727
     atom    4 type  1   force =     0.00162600    0.00000000   -0.00248727
     atom    5 type  1   force =    -0.00081300    0.00140816   -0.00248727
     atom    6 type  1   force =    -0.00081300   -0.00140816   -0.00248727
     atom    7 type  2   force =     0.00000000    0.00000000    0.00142401
     atom    8 type  2   force =     0.00064490   -0.00000000    0.00140073
     atom    9 type  2   force =    -0.00032245    0.00055850    0.00140073
     atom   10 type  2   force =    -0.00032245   -0.00055850    0.00140073
     atom   11 type  2   force =     0.00000000   -0.00000000    0.00309238
     atom   12 type  2   force =    -0.00081418   -0.00000000    0.00045682
     atom   13 type  2   force =     0.00040709   -0.00070510    0.00045682
     atom   14 type  2   force =     0.00040709    0.00070510    0.00045682
     atom   15 type  2   force =     0.00081418   -0.00000000   -0.00045682
     atom   16 type  2   force =    -0.00040709    0.00070510   -0.00045682
     atom   17 type  2   force =    -0.00040709   -0.00070510   -0.00045682
     atom   18 type  2   force =    -0.00000000    0.00000000   -0.00309238
     atom   19 type  2   force =    -0.00064490    0.00000000   -0.00140073
     atom   20 type  2   force =     0.00032245   -0.00055850   -0.00140073
     atom   21 type  2   force =     0.00032245    0.00055850   -0.00140073
     atom   22 type  2   force =    -0.00000000   -0.00000000   -0.00142401

     Total force =     0.018781     Total SCF correction =     0.000004

     DFT-D3 dispersion Force =     0.009781


     Computing stress (Cartesian axis) and pressure

          total   stress  (Ry/bohr**3)                   (kbar)     P=        2.18
   0.00001326  -0.00000000  -0.00000000            1.95       -0.00       -0.00
  -0.00000000   0.00001326   0.00000000           -0.00        1.95        0.00
   0.00000000  -0.00000000   0.00001787            0.00       -0.00        2.63

     kinetic stress (kbar)   3636.15      0.00      0.00
                                0.00   3636.15     -0.00
                                0.00     -0.00   3597.69

     local   stress (kbar)-183529.82     -0.00     -0.00
                               -0.00-183529.82      0.00
                               -0.00      0.00 180465.94

     nonloc. stress (kbar)   1931.04     -0.00     -0.00
                                0.00   1931.04      0.00
                                0.00      0.00   1939.90

     hartree stress (kbar)  91269.07     -0.00      0.00
                               -0.00  91269.07      0.00
                                0.00      0.00 -88839.65

     exc-cor stress (kbar)   -801.95     -0.00      0.00
                               -0.00   -801.95     -0.00
                                0.00     -0.00   -803.56

     corecor stress (kbar)      0.00      0.00      0.00
                                0.00      0.00      0.00
                                0.00      0.00      0.00

     ewald   stress (kbar)  87501.79      0.00      0.00
                                0.00  87501.79     -0.00
                                0.00     -0.00 -96354.19

     hubbard stress (kbar)      0.00      0.00      0.00
                                0.00      0.00      0.00
                                0.00      0.00      0.00

     DFT-D   stress (kbar)     -4.32      0.00     -0.00
                                0.00     -4.32      0.00
                               -0.00      0.00     -3.50

     XDM     stress (kbar)      0.00      0.00      0.00
                                0.00      0.00      0.00
                                0.00      0.00      0.00

     dft-nl  stress (kbar)      0.00      0.00      0.00
                                0.00      0.00      0.00
                                0.00      0.00      0.00

     TS-vdW  stress (kbar)      0.00      0.00      0.00
                                0.00      0.00      0.00
                                0.00      0.00      0.00

     MDB     stress (kbar)      0.00      0.00      0.00
                                0.00      0.00      0.00
                                0.00      0.00      0.00

     3D-RISM stress (kbar)      0.00      0.00      0.00
                                0.00      0.00      0.00
                                0.00      0.00      0.00


     Damped Dynamics Calculation

     Entering Dynamics:    iteration =     1

ATOMIC_POSITIONS (crystal)
Nb               0.1349905145       -0.1349905145       -0.1010751887
Nb               0.1349905145        0.2699810289       -0.1010751887
Nb              -0.2699810289       -0.1349905145       -0.1010751887
Nb              -0.1349905145        0.1349905145        0.1010751887
Nb              -0.1349905145       -0.2699810289        0.1010751887
Nb               0.2699810289        0.1349905145        0.1010751887
Br               0.0000000000        0.0000000000       -0.1621124039
Br              -0.4967668857        0.4967668857       -0.1456342527
Br              -0.4967668857        0.0064662286       -0.1456342527
Br              -0.0064662286        0.4967668857       -0.1456342527
Br               0.3333333333       -0.3333333333       -0.0572319806
Br              -0.1664350124        0.1664350124       -0.0470317165
Br              -0.1664350124       -0.3328700247       -0.0470317165
Br               0.3328700247        0.1664350124       -0.0470317165
Br               0.1664350124       -0.1664350124        0.0470317165
Br               0.1664350124        0.3328700247        0.0470317165
Br              -0.3328700247       -0.1664350124        0.0470317165
Br              -0.3333333333        0.3333333333        0.0572319806
Br               0.4967668857       -0.4967668857        0.1456342527
Br               0.4967668857       -0.0064662286        0.1456342527
Br               0.0064662286       -0.4967668857        0.1456342527
Br               0.0000000000        0.0000000000        0.1621124039



     Writing config-only to output data dir ./out/Nb3Br8.save/ :
     XML data file
     NEW-OLD atomic charge density approx. for the potential

     negative rho (up, down):  1.511E-05 0.000E+00
     extrapolated charge  190.00081, renormalised to  190.00000

     total cpu time spent up to now is      121.9 secs

     per-process dynamical memory:   262.1 Mb

     Self-consistent Calculation

     iteration #  1     ecut=   100.00 Ry     beta= 0.70
     Davidson diagonalization with overlap

---- Real-time Memory Report at c_bands before calling an iterative solver
           472 MiB given to the printing process from OS
           255 MiB allocation reported by mallinfo(arena+hblkhd)
        298250 MiB available memory on the node where the printing process lives
------------------
     ethr =  1.00E-06,  avg # of iterations =  4.0

     Threshold (ethr) on eigenvalues was too large:
     Diagonalizing with lowered threshold

     Davidson diagonalization with overlap

---- Real-time Memory Report at c_bands before calling an iterative solver
           472 MiB given to the printing process from OS
           211 MiB allocation reported by mallinfo(arena+hblkhd)
        301263 MiB available memory on the node where the printing process lives
------------------
     ethr =  3.75E-09,  avg # of iterations = 18.3

     negative rho (up, down):  4.026E-06 0.000E+00

     total cpu time spent up to now is      131.0 secs

     WARNING: integrated charge=   190.00057819, expected=   190.00000000

     total energy              =   -1118.22733151 Ry
     estimated scf accuracy    <       0.00000560 Ry

     iteration #  2     ecut=   100.00 Ry     beta= 0.70
     Davidson diagonalization with overlap

---- Real-time Memory Report at c_bands before calling an iterative solver
           472 MiB given to the printing process from OS
           230 MiB allocation reported by mallinfo(arena+hblkhd)
        299470 MiB available memory on the node where the printing process lives
------------------
     ethr =  2.95E-09,  avg # of iterations =  9.6

     negative rho (up, down):  2.967E-06 0.000E+00

     total cpu time spent up to now is      134.6 secs

     WARNING: integrated charge=   190.00063537, expected=   190.00000000

     total energy              =   -1118.22733141 Ry
     estimated scf accuracy    <       0.00001637 Ry

     iteration #  3     ecut=   100.00 Ry     beta= 0.70
     Davidson diagonalization with overlap

---- Real-time Memory Report at c_bands before calling an iterative solver
           472 MiB given to the printing process from OS
           233 MiB allocation reported by mallinfo(arena+hblkhd)
        299395 MiB available memory on the node where the printing process lives
------------------
     ethr =  2.95E-09,  avg # of iterations =  5.6

     negative rho (up, down):  1.281E-06 0.000E+00

     total cpu time spent up to now is      137.2 secs

     WARNING: integrated charge=   190.00073131, expected=   190.00000000

     total energy              =   -1118.22733426 Ry
     estimated scf accuracy    <       0.00000053 Ry

     iteration #  4     ecut=   100.00 Ry     beta= 0.70
     Davidson diagonalization with overlap

---- Real-time Memory Report at c_bands before calling an iterative solver
           472 MiB given to the printing process from OS
           234 MiB allocation reported by mallinfo(arena+hblkhd)
        299287 MiB available memory on the node where the printing process lives
------------------
     ethr =  2.78E-10,  avg # of iterations =  9.0

     negative rho (up, down):  7.057E-07 0.000E+00

     total cpu time spent up to now is      140.6 secs

     WARNING: integrated charge=   190.00076809, expected=   190.00000000

     total energy              =   -1118.22733406 Ry
     estimated scf accuracy    <       0.00000068 Ry

     iteration #  5     ecut=   100.00 Ry     beta= 0.70
     Davidson diagonalization with overlap

---- Real-time Memory Report at c_bands before calling an iterative solver
           472 MiB given to the printing process from OS
           236 MiB allocation reported by mallinfo(arena+hblkhd)
        299321 MiB available memory on the node where the printing process lives
------------------
     ethr =  2.78E-10,  avg # of iterations =  3.9

     negative rho (up, down):  8.518E-08 0.000E+00

     total cpu time spent up to now is      142.9 secs

     WARNING: integrated charge=   190.00081048, expected=   190.00000000

     total energy              =   -1118.22733441 Ry
     estimated scf accuracy    <       0.00000008 Ry

     iteration #  6     ecut=   100.00 Ry     beta= 0.70
     Davidson diagonalization with overlap

---- Real-time Memory Report at c_bands before calling an iterative solver
           472 MiB given to the printing process from OS
           238 MiB allocation reported by mallinfo(arena+hblkhd)
        299203 MiB available memory on the node where the printing process lives
------------------
     ethr =  4.15E-11,  avg # of iterations =  7.6

     total cpu time spent up to now is      145.7 secs

     WARNING: integrated charge=   190.00081720, expected=   190.00000000

     total energy              =   -1118.22733440 Ry
     estimated scf accuracy    <       0.00000001 Ry

     iteration #  7     ecut=   100.00 Ry     beta= 0.70
     Davidson diagonalization with overlap

---- Real-time Memory Report at c_bands before calling an iterative solver
           472 MiB given to the printing process from OS
           239 MiB allocation reported by mallinfo(arena+hblkhd)
        299212 MiB available memory on the node where the printing process lives
------------------
     ethr =  7.82E-12,  avg # of iterations = 12.1

     total cpu time spent up to now is      149.6 secs

     WARNING: integrated charge=   190.00081889, expected=   190.00000000

     total energy              =   -1118.22733439 Ry
     estimated scf accuracy    <          1.3E-09 Ry

     iteration #  8     ecut=   100.00 Ry     beta= 0.70
     Davidson diagonalization with overlap

---- Real-time Memory Report at c_bands before calling an iterative solver
           472 MiB given to the printing process from OS
           241 MiB allocation reported by mallinfo(arena+hblkhd)
        299112 MiB available memory on the node where the printing process lives
------------------
     ethr =  7.00E-13,  avg # of iterations = 13.9

     total cpu time spent up to now is      154.1 secs

     WARNING: integrated charge=   190.00081978, expected=   190.00000000

     total energy              =   -1118.22733439 Ry
     estimated scf accuracy    <          9.7E-11 Ry

     iteration #  9     ecut=   100.00 Ry     beta= 0.70
     Davidson diagonalization with overlap

---- Real-time Memory Report at c_bands before calling an iterative solver
           472 MiB given to the printing process from OS
           242 MiB allocation reported by mallinfo(arena+hblkhd)
        299149 MiB available memory on the node where the printing process lives
------------------
     ethr =  1.00E-13,  avg # of iterations =  8.4

     total cpu time spent up to now is      158.8 secs

     WARNING: integrated charge=   190.00081988, expected=   190.00000000

     total energy              =   -1118.22733439 Ry
     estimated scf accuracy    <          1.6E-11 Ry

     iteration # 10     ecut=   100.00 Ry     beta= 0.70
     Davidson diagonalization with overlap

---- Real-time Memory Report at c_bands before calling an iterative solver
           472 MiB given to the printing process from OS
           244 MiB allocation reported by mallinfo(arena+hblkhd)
        299048 MiB available memory on the node where the printing process lives
------------------
     ethr =  1.00E-13,  avg # of iterations =  2.3

     total cpu time spent up to now is      161.1 secs

     WARNING: integrated charge=   190.00081986, expected=   190.00000000

     total energy              =   -1118.22733439 Ry
     estimated scf accuracy    <          3.8E-12 Ry

     iteration # 11     ecut=   100.00 Ry     beta= 0.70
     Davidson diagonalization with overlap

---- Real-time Memory Report at c_bands before calling an iterative solver
           472 MiB given to the printing process from OS
           244 MiB allocation reported by mallinfo(arena+hblkhd)
        299100 MiB available memory on the node where the printing process lives
------------------
     ethr =  1.00E-13,  avg # of iterations =  1.0

     total cpu time spent up to now is      162.7 secs

     End of self-consistent calculation

          k = 0.0000 0.0000 0.0000 (160347 PWs)   bands (ev):

   -55.3829 -55.3829 -55.3060 -55.3060 -55.3060 -55.3060 -31.7453 -31.7453
   -31.5763 -31.5762 -31.5738 -31.5738 -31.5737 -31.5737 -31.4759 -31.4759
   -31.4759 -31.4759 -31.2577 -31.2577 -31.1124 -31.1124 -31.1124 -31.1124
   -16.5782 -16.5596 -16.1727 -15.9908 -15.5533 -15.5533 -15.5169 -15.4980
   -15.4597 -15.4597 -15.2176 -15.1988 -14.8464 -14.8464 -14.8455 -14.8455
    -6.1587  -6.1587  -6.0673  -6.0673  -5.9186  -5.6538  -5.5970  -5.5844
    -5.2630  -5.2432  -5.2432  -5.2211  -5.2211  -4.9755  -4.8004  -4.6761
    -4.6230  -4.6230  -4.2845  -4.2845  -3.8703  -3.7583  -3.6141  -3.6141
    -3.5830  -3.5830  -3.4200  -3.3392  -3.3157  -3.3157  -3.2506  -3.2506
    -3.0580  -3.0580  -2.9639  -2.9546  -2.8741  -2.8741  -2.8514  -2.4397
    -2.2191  -2.2191  -2.1707  -2.1707  -1.4929  -1.4929  -1.4738  -1.4738
    -1.2222  -1.1006  -0.5837  -0.5837  -0.5573  -0.5573   0.4118   0.6377
     1.3622   1.3622   1.3727   1.3727   1.9039   2.1562   2.1788   2.1788
     2.2436   2.2436   2.5429   2.6283   2.6283   2.6471   2.6471   2.6589
     2.7736   2.7736

     occupation numbers 
     1.0000   1.0000   1.0000   1.0000   1.0000   1.0000   1.0000   1.0000
     1.0000   1.0000   1.0000   1.0000   1.0000   1.0000   1.0000   1.0000
     1.0000   1.0000   1.0000   1.0000   1.0000   1.0000   1.0000   1.0000
     1.0000   1.0000   1.0000   1.0000   1.0000   1.0000   1.0000   1.0000
     1.0000   1.0000   1.0000   1.0000   1.0000   1.0000   1.0000   1.0000
     1.0000   1.0000   1.0000   1.0000   1.0000   1.0000   1.0000   1.0000
     1.0000   1.0000   1.0000   1.0000   1.0000   1.0000   1.0000   1.0000
     1.0000   1.0000   1.0000   1.0000   1.0000   1.0000   1.0000   1.0000
     1.0000   1.0000   1.0000   1.0000   1.0000   1.0000   1.0000   1.0000
     1.0000   1.0000   1.0000   1.0000   1.0000   1.0000   1.0000   1.0000
     1.0000   1.0000   1.0000   1.0000   1.0000   1.0000   1.0000   1.0000
     1.0000   1.0000   1.0000   1.0000   1.0000   1.0000   1.0034   0.0014
     0.0000   0.0000   0.0000   0.0000   0.0000   0.0000   0.0000   0.0000
     0.0000   0.0000   0.0000   0.0000   0.0000   0.0000   0.0000   0.0000
     0.0000   0.0000

          k =-0.0962 0.1667 0.0000 (160353 PWs)   bands (ev):

   -55.3827 -55.3827 -55.3061 -55.3061 -55.3060 -55.3060 -31.7423 -31.7423
   -31.5754 -31.5754 -31.5732 -31.5732 -31.5715 -31.5715 -31.4768 -31.4768
   -31.4759 -31.4759 -31.2593 -31.2593 -31.1164 -31.1164 -31.1132 -31.1132
   -16.5586 -16.5443 -16.1457 -15.9641 -15.6024 -15.5547 -15.5291 -15.5120
   -15.4765 -15.4585 -15.2033 -15.1866 -14.8733 -14.8719 -14.8471 -14.8462
    -6.0618  -6.0507  -6.0099  -5.9775  -5.7422  -5.5953  -5.5550  -5.5103
    -5.3320  -5.2701  -5.1823  -5.1646  -5.0478  -4.9307  -4.7683  -4.6464
    -4.6350  -4.5752  -4.3100  -4.2999  -3.8785  -3.8127  -3.7513  -3.7169
    -3.6013  -3.5839  -3.5749  -3.5338  -3.4199  -3.3591  -3.2638  -3.1931
    -3.0900  -3.0553  -3.0307  -2.9965  -2.9076  -2.8419  -2.8383  -2.4695
    -2.4136  -2.3007  -2.2569  -2.1549  -1.7668  -1.7330  -1.5552  -1.5175
    -1.2650  -1.1743  -0.5973  -0.5703  -0.5615  -0.5393   0.3941   0.6683
     1.3804   1.3836   1.3862   1.3868   1.8964   2.0712   2.1270   2.1480
     2.2250   2.2301   2.3709   2.4647   2.4920   2.5599   2.5771   2.6331
     2.8553   2.9264

     occupation numbers 
     1.0000   1.0000   1.0000   1.0000   1.0000   1.0000   1.0000   1.0000
     1.0000   1.0000   1.0000   1.0000   1.0000   1.0000   1.0000   1.0000
     1.0000   1.0000   1.0000   1.0000   1.0000   1.0000   1.0000   1.0000
     1.0000   1.0000   1.0000   1.0000   1.0000   1.0000   1.0000   1.0000
     1.0000   1.0000   1.0000   1.0000   1.0000   1.0000   1.0000   1.0000
     1.0000   1.0000   1.0000   1.0000   1.0000   1.0000   1.0000   1.0000
     1.0000   1.0000   1.0000   1.0000   1.0000   1.0000   1.0000   1.0000
     1.0000   1.0000   1.0000   1.0000   1.0000   1.0000   1.0000   1.0000
     1.0000   1.0000   1.0000   1.0000   1.0000   1.0000   1.0000   1.0000
     1.0000   1.0000   1.0000   1.0000   1.0000   1.0000   1.0000   1.0000
     1.0000   1.0000   1.0000   1.0000   1.0000   1.0000   1.0000   1.0000
     1.0000   1.0000   1.0000   1.0000   1.0000   1.0000   1.0007   0.0000
     0.0000   0.0000   0.0000   0.0000   0.0000   0.0000   0.0000   0.0000
     0.0000   0.0000   0.0000   0.0000   0.0000   0.0000   0.0000   0.0000
     0.0000   0.0000

          k =-0.1925 0.3333 0.0000 (160313 PWs)   bands (ev):

   -55.3825 -55.3825 -55.3063 -55.3063 -55.3060 -55.3060 -31.7363 -31.7363
   -31.5736 -31.5736 -31.5718 -31.5718 -31.5669 -31.5669 -31.4786 -31.4786
   -31.4760 -31.4760 -31.2626 -31.2626 -31.1247 -31.1247 -31.1148 -31.1148
   -16.5201 -16.5137 -16.0585 -15.8843 -15.7364 -15.6105 -15.5574 -15.5296
   -15.4861 -15.4561 -15.1683 -15.1581 -14.9317 -14.9304 -14.8485 -14.8478
    -5.8260  -5.8229  -5.7915  -5.7773  -5.5936  -5.5362  -5.3222  -5.2940
    -5.2403  -5.1439  -5.0628  -5.0413  -4.8191  -4.7833  -4.7254  -4.7068
    -4.6186  -4.4897  -4.4358  -4.3639  -4.0886  -4.0186  -3.9368  -3.8725
    -3.7985  -3.7834  -3.6698  -3.5734  -3.5313  -3.4928  -3.4368  -3.2804
    -3.1940  -3.1751  -3.1587  -3.0946  -2.8685  -2.8213  -2.7519  -2.7442
    -2.5993  -2.4331  -2.3402  -2.2198  -2.2024  -2.1754  -1.6517  -1.6084
    -1.3455  -1.3051  -0.6324  -0.6124  -0.5257  -0.5001   0.3237   0.6622
[...]
     atom    4 type  1   force =     0.20326073    0.00000000    0.03741098
     atom    5 type  1   force =    -0.10163037    0.17602896    0.03741098
     atom    6 type  1   force =    -0.10163037   -0.17602896    0.03741098
     atom    7 type  2   force =     0.00000000    0.00000000    0.23186441
     atom    8 type  2   force =    -0.08721390    0.00000000    0.13873860
     atom    9 type  2   force =     0.04360695   -0.07552945    0.13873860
     atom   10 type  2   force =     0.04360695    0.07552945    0.13873860
     atom   11 type  2   force =    -0.00000000   -0.00000000   -0.15464525
     atom   12 type  2   force =     0.11250999   -0.00000000   -0.15923238
     atom   13 type  2   force =    -0.05625499    0.09743651   -0.15923238
     atom   14 type  2   force =    -0.05625499   -0.09743651   -0.15923238
     atom   15 type  2   force =    -0.11250999    0.00000000    0.15923238
     atom   16 type  2   force =     0.05625499   -0.09743651    0.15923238
     atom   17 type  2   force =     0.05625499    0.09743651    0.15923238
     atom   18 type  2   force =     0.00000000   -0.00000000    0.15464525
     atom   19 type  2   force =     0.08721390    0.00000000   -0.13873860
     atom   20 type  2   force =    -0.04360695    0.07552945   -0.13873860
     atom   21 type  2   force =    -0.04360695   -0.07552945   -0.13873860
     atom   22 type  2   force =     0.00000000    0.00000000   -0.23186441
     The ionic contribution  to forces
     atom    1 type  1   force =     9.67123364    0.00000000  -60.38664445
     atom    2 type  1   force =    -4.83561682    8.37553402  -60.38664445
     atom    3 type  1   force =    -4.83561682   -8.37553402  -60.38664445
     atom    4 type  1   force =    -9.67123364   -0.00000000   60.38664445
     atom    5 type  1   force =     4.83561682   -8.37553402   60.38664445
     atom    6 type  1   force =     4.83561682    8.37553402   60.38664445
     atom    7 type  2   force =     0.00000000    0.00000000  -64.40312468
     atom    8 type  2   force =     2.90585811   -0.00000000  -53.83311452
     atom    9 type  2   force =    -1.45292906    2.51654694  -53.83311452
     atom   10 type  2   force =    -1.45292906   -2.51654694  -53.83311452
     atom   11 type  2   force =     0.00000000   -0.00000000   -9.95113089
     atom   12 type  2   force =    -6.16454128    0.00000000   -5.98967290
     atom   13 type  2   force =     3.08227064   -5.33864935   -5.98967290
     atom   14 type  2   force =     3.08227064    5.33864935   -5.98967290
     atom   15 type  2   force =     6.16454128   -0.00000000    5.98967290
     atom   16 type  2   force =    -3.08227064    5.33864935    5.98967290
     atom   17 type  2   force =    -3.08227064   -5.33864935    5.98967290
     atom   18 type  2   force =    -0.00000000    0.00000000    9.95113089
     atom   19 type  2   force =    -2.90585811    0.00000000   53.83311452
     atom   20 type  2   force =     1.45292906   -2.51654694   53.83311452
     atom   21 type  2   force =     1.45292906    2.51654694   53.83311452
     atom   22 type  2   force =    -0.00000000   -0.00000000   64.40312468
     The local contribution  to forces
     atom    1 type  1   force =    -9.46632030   -0.00000000   60.42164981
     atom    2 type  1   force =     4.73316015   -8.19807386   60.42164981
     atom    3 type  1   force =     4.73316015    8.19807386   60.42164981
     atom    4 type  1   force =     9.46632030    0.00000000  -60.42164981
     atom    5 type  1   force =    -4.73316015    8.19807386  -60.42164981
     atom    6 type  1   force =    -4.73316015   -8.19807386  -60.42164981
     atom    7 type  2   force =     0.00000000    0.00000000   64.16990210
     atom    8 type  2   force =    -2.81942008    0.00000000   53.69289968
     atom    9 type  2   force =     1.40971004   -2.44168941   53.69289968
     atom   10 type  2   force =     1.40971004    2.44168941   53.69289968
     atom   11 type  2   force =     0.00000000   -0.00000000   10.10262875
     atom   12 type  2   force =     6.05284484   -0.00000000    6.14841630
     atom   13 type  2   force =    -3.02642242    5.24191740    6.14841630
     atom   14 type  2   force =    -3.02642242   -5.24191740    6.14841630
     atom   15 type  2   force =    -6.05284484    0.00000000   -6.14841630
     atom   16 type  2   force =     3.02642242   -5.24191740   -6.14841630
     atom   17 type  2   force =     3.02642242    5.24191740   -6.14841630
     atom   18 type  2   force =    -0.00000000    0.00000000  -10.10262875
     atom   19 type  2   force =     2.81942008   -0.00000000  -53.69289968
     atom   20 type  2   force =    -1.40971004    2.44168941  -53.69289968
     atom   21 type  2   force =    -1.40971004   -2.44168941  -53.69289968
     atom   22 type  2   force =    -0.00000000   -0.00000000  -64.16990210
     The core correction contribution to forces
     atom    1 type  1   force =     0.00000000    0.00000000    0.00000000
     atom    2 type  1   force =     0.00000000    0.00000000    0.00000000
     atom    3 type  1   force =     0.00000000    0.00000000    0.00000000
     atom    4 type  1   force =     0.00000000    0.00000000    0.00000000
     atom    5 type  1   force =     0.00000000    0.00000000    0.00000000
     atom    6 type  1   force =     0.00000000    0.00000000    0.00000000
     atom    7 type  2   force =     0.00000000    0.00000000    0.00000000
     atom    8 type  2   force =     0.00000000    0.00000000    0.00000000
     atom    9 type  2   force =     0.00000000    0.00000000    0.00000000
     atom   10 type  2   force =     0.00000000    0.00000000    0.00000000
     atom   11 type  2   force =     0.00000000    0.00000000    0.00000000
     atom   12 type  2   force =     0.00000000    0.00000000    0.00000000
     atom   13 type  2   force =     0.00000000    0.00000000    0.00000000
     atom   14 type  2   force =     0.00000000    0.00000000    0.00000000
     atom   15 type  2   force =     0.00000000    0.00000000    0.00000000
     atom   16 type  2   force =     0.00000000    0.00000000    0.00000000
     atom   17 type  2   force =     0.00000000    0.00000000    0.00000000
     atom   18 type  2   force =     0.00000000    0.00000000    0.00000000
     atom   19 type  2   force =     0.00000000    0.00000000    0.00000000
     atom   20 type  2   force =     0.00000000    0.00000000    0.00000000
     atom   21 type  2   force =     0.00000000    0.00000000    0.00000000
     atom   22 type  2   force =     0.00000000    0.00000000    0.00000000
     The Hubbard contrib.    to forces
     atom    1 type  1   force =     0.00000000    0.00000000    0.00000000
     atom    2 type  1   force =     0.00000000    0.00000000    0.00000000
     atom    3 type  1   force =     0.00000000    0.00000000    0.00000000
     atom    4 type  1   force =     0.00000000    0.00000000    0.00000000
     atom    5 type  1   force =     0.00000000    0.00000000    0.00000000
     atom    6 type  1   force =     0.00000000    0.00000000    0.00000000
     atom    7 type  2   force =     0.00000000    0.00000000    0.00000000
     atom    8 type  2   force =     0.00000000    0.00000000    0.00000000
     atom    9 type  2   force =     0.00000000    0.00000000    0.00000000
     atom   10 type  2   force =     0.00000000    0.00000000    0.00000000
     atom   11 type  2   force =     0.00000000    0.00000000    0.00000000
     atom   12 type  2   force =     0.00000000    0.00000000    0.00000000
     atom   13 type  2   force =     0.00000000    0.00000000    0.00000000
     atom   14 type  2   force =     0.00000000    0.00000000    0.00000000
     atom   15 type  2   force =     0.00000000    0.00000000    0.00000000
     atom   16 type  2   force =     0.00000000    0.00000000    0.00000000
     atom   17 type  2   force =     0.00000000    0.00000000    0.00000000
     atom   18 type  2   force =     0.00000000    0.00000000    0.00000000
     atom   19 type  2   force =     0.00000000    0.00000000    0.00000000
     atom   20 type  2   force =     0.00000000    0.00000000    0.00000000
     atom   21 type  2   force =     0.00000000    0.00000000    0.00000000
     atom   22 type  2   force =     0.00000000    0.00000000    0.00000000
     The SCF correction term to forces
     atom    1 type  1   force =     0.00000008   -0.00000000   -0.00000051
     atom    2 type  1   force =    -0.00000004    0.00000007   -0.00000051
     atom    3 type  1   force =    -0.00000004   -0.00000007   -0.00000051
     atom    4 type  1   force =    -0.00000008    0.00000000    0.00000051
     atom    5 type  1   force =     0.00000004   -0.00000007    0.00000051
     atom    6 type  1   force =     0.00000004    0.00000007    0.00000051
     atom    7 type  2   force =    -0.00000000    0.00000000   -0.00000025
     atom    8 type  2   force =     0.00000003    0.00000000   -0.00000032
     atom    9 type  2   force =    -0.00000001    0.00000002   -0.00000032
     atom   10 type  2   force =    -0.00000001   -0.00000002   -0.00000032
     atom   11 type  2   force =     0.00000000   -0.00000000   -0.00000013
     atom   12 type  2   force =    -0.00000002    0.00000000   -0.00000007
     atom   13 type  2   force =     0.00000001   -0.00000001   -0.00000007
     atom   14 type  2   force =     0.00000001    0.00000001   -0.00000007
     atom   15 type  2   force =     0.00000002   -0.00000000    0.00000007
     atom   16 type  2   force =    -0.00000001    0.00000001    0.00000007
     atom   17 type  2   force =    -0.00000001   -0.00000001    0.00000007
     atom   18 type  2   force =     0.00000000    0.00000000    0.00000013
     atom   19 type  2   force =    -0.00000003   -0.00000000    0.00000032
     atom   20 type  2   force =     0.00000001   -0.00000002    0.00000032
     atom   21 type  2   force =     0.00000001    0.00000002    0.00000032
     atom   22 type  2   force =     0.00000000    0.00000000    0.00000025

     DFT-D3 dispersion contribution to forces:
     atom    1 type  1   force =    -0.00165265    0.00000000    0.00240531
     atom    2 type  1   force =     0.00082632   -0.00143123    0.00240531
     atom    3 type  1   force =     0.00082632    0.00143123    0.00240531
     atom    4 type  1   force =     0.00165265   -0.00000000   -0.00240531
     atom    5 type  1   force =    -0.00082632    0.00143123   -0.00240531
     atom    6 type  1   force =    -0.00082632   -0.00143123   -0.00240531
     atom    7 type  2   force =     0.00000000   -0.00000000    0.00135759
     atom    8 type  2   force =     0.00077602   -0.00000000    0.00147596
     atom    9 type  2   force =    -0.00038801    0.00067206    0.00147596
     atom   10 type  2   force =    -0.00038801   -0.00067206    0.00147596
     atom   11 type  2   force =     0.00000000   -0.00000000    0.00314667
     atom   12 type  2   force =    -0.00081352    0.00000000    0.00048847
     atom   13 type  2   force =     0.00040676   -0.00070453    0.00048847
     atom   14 type  2   force =     0.00040676    0.00070453    0.00048847
     atom   15 type  2   force =     0.00081352   -0.00000000   -0.00048847
     atom   16 type  2   force =    -0.00040676    0.00070453   -0.00048847
     atom   17 type  2   force =    -0.00040676   -0.00070453   -0.00048847
     atom   18 type  2   force =    -0.00000000    0.00000000   -0.00314667
     atom   19 type  2   force =    -0.00077602    0.00000000   -0.00147596
     atom   20 type  2   force =     0.00038801   -0.00067206   -0.00147596
     atom   21 type  2   force =     0.00038801    0.00067206   -0.00147596
     atom   22 type  2   force =    -0.00000000   -0.00000000   -0.00135759

     Total force =     0.000003     Total SCF correction =     0.000002

     DFT-D3 dispersion Force =     0.009832
     SCF correction compared to forces is large: reduce conv_thr to get better values


     Computing stress (Cartesian axis) and pressure

          total   stress  (Ry/bohr**3)                   (kbar)     P=        0.67
   0.00000710   0.00000000   0.00000000            1.04        0.00        0.00
   0.00000000   0.00000710   0.00000000            0.00        1.04        0.00
   0.00000000   0.00000000  -0.00000049            0.00        0.00       -0.07

     kinetic stress (kbar)   3635.76     -0.00      0.00
                               -0.00   3635.76      0.00
                               -0.00     -0.00   3593.22

     local   stress (kbar)-181953.25      0.00     -0.00
                                0.00-181953.25     -0.00
                               -0.00     -0.00 178870.11

     nonloc. stress (kbar)   1930.84     -0.00     -0.00
                               -0.00   1930.84     -0.00
                                0.00     -0.00   1939.75

     hartree stress (kbar)  90486.34     -0.00      0.00
                               -0.00  90486.34      0.00
                                0.00      0.00 -88052.26

     exc-cor stress (kbar)   -801.65      0.00     -0.00
                                0.00   -801.65     -0.00
                               -0.00     -0.00   -803.27

     corecor stress (kbar)      0.00      0.00      0.00
                                0.00      0.00      0.00
                                0.00      0.00      0.00

     ewald   stress (kbar)  86707.30      0.00      0.00
                                0.00  86707.30      0.00
                                0.00      0.00 -95544.08

     hubbard stress (kbar)      0.00      0.00      0.00
                                0.00      0.00      0.00
                                0.00      0.00      0.00

     DFT-D   stress (kbar)     -4.29      0.00     -0.00
                                0.00     -4.29     -0.00
                               -0.00     -0.00     -3.53

     XDM     stress (kbar)      0.00      0.00      0.00
                                0.00      0.00      0.00
                                0.00      0.00      0.00

     dft-nl  stress (kbar)      0.00      0.00      0.00
                                0.00      0.00      0.00
                                0.00      0.00      0.00

     TS-vdW  stress (kbar)      0.00      0.00      0.00
                                0.00      0.00      0.00
                                0.00      0.00      0.00

     MDB     stress (kbar)      0.00      0.00      0.00
                                0.00      0.00      0.00
                                0.00      0.00      0.00

     3D-RISM stress (kbar)      0.00      0.00      0.00
                                0.00      0.00      0.00
                                0.00      0.00      0.00


     Damped Dynamics: convergence achieved in  36 steps

     End of damped dynamics calculation

     Final energy =   -1118.2280523089 Ry

Begin final coordinates
     new unit-cell volume =   9490.83920 a.u.^3 (  1406.39727 Ang^3 )
     density =      2.16766 g/cm^3

CELL_PARAMETERS (angstrom)
   6.138027874   3.543792045   0.000000000
  -6.138027874   3.543792045   0.000000000
   0.000000000   0.000000000  32.328156026

ATOMIC_POSITIONS (crystal)
Nb               0.1350744960       -0.1350744960       -0.1018333876
Nb               0.1350744960        0.2701489919       -0.1018333876
Nb              -0.2701489919       -0.1350744960       -0.1018333876
Nb              -0.1350744960        0.1350744960        0.1018333876
Nb              -0.1350744960       -0.2701489919        0.1018333876
Nb               0.2701489919        0.1350744960        0.1018333876
Br              -0.0000000000       -0.0000000000       -0.1633898367
Br              -0.4977941624        0.4977941624       -0.1467068755
Br              -0.4977941624        0.0044116751       -0.1467068755
Br              -0.0044116751        0.4977941624       -0.1467068755
Br               0.3333333333       -0.3333333333       -0.0577541486
Br              -0.1664356666        0.1664356666       -0.0476000346
Br              -0.1664356666       -0.3328713331       -0.0476000346
Br               0.3328713331        0.1664356666       -0.0476000346
Br               0.1664356666       -0.1664356666        0.0476000346
Br               0.1664356666        0.3328713331        0.0476000346
Br              -0.3328713331       -0.1664356666        0.0476000346
Br              -0.3333333333        0.3333333333        0.0577541486
Br               0.4977941624       -0.4977941624        0.1467068755
Br               0.4977941624       -0.0044116751        0.1467068755
Br               0.0044116751       -0.4977941624        0.1467068755
Br              -0.0000000000       -0.0000000000        0.1633898367
End final coordinates



     Writing all to output data dir ./out/Nb3Br8.save/ :
     XML data file, charge density, pseudopotentials, collected wavefunctions

     init_run     :      1.66s CPU      1.84s WALL (       1 calls)
     electrons    :   1467.50s CPU   1636.99s WALL (      37 calls)
     update_pot   :    136.29s CPU    203.59s WALL (      36 calls)
     forces       :     23.29s CPU     25.68s WALL (      37 calls)
     force_dftd3  :      0.99s CPU      1.05s WALL (      37 calls)
     stress       :    237.82s CPU    249.82s WALL (      37 calls)
     stres_dftd3  :      0.90s CPU      1.31s WALL (      37 calls)

     Called by init_run:
     wfcinit      :      0.55s CPU      0.62s WALL (       1 calls)
     wfcinit:wfcr :      0.48s CPU      0.52s WALL (       1 calls)
     potinit      :      0.10s CPU      0.12s WALL (       1 calls)
     hinit0       :      0.51s CPU      0.54s WALL (       1 calls)

     Called by electrons:
     c_bands      :   1261.73s CPU   1346.45s WALL (     569 calls)
     sum_band     :    121.95s CPU    135.48s WALL (     569 calls)
     v_of_rho     :     49.32s CPU     54.14s WALL (     569 calls)
     v_h          :      3.97s CPU      4.42s WALL (     569 calls)
     v_xc         :     45.34s CPU     49.72s WALL (     569 calls)
     mix_rho      :     16.92s CPU     18.08s WALL (     569 calls)
     energy_dftd3 :      0.06s CPU      0.06s WALL (      37 calls)

     Called by c_bands:
     init_us_2    :     56.27s CPU     58.30s WALL (    1139 calls)
     cegterg      :   1046.97s CPU   1127.09s WALL (     570 calls)

     Called by sum_band:
     sum_band:wei :      1.49s CPU      1.51s WALL (     569 calls)
     sum_band:loo :    107.89s CPU    119.33s WALL (     569 calls)
     sum_band:buf :      0.00s CPU      0.00s WALL (     569 calls)
     sum_band:ini :     29.07s CPU     30.28s WALL (     569 calls)

     Called by *egterg:
     cdiaghg      :     59.55s CPU     61.22s WALL (    3453 calls)
     cegterg:over :     95.15s CPU     97.97s WALL (    2956 calls)
     cegterg:upda :     70.44s CPU     75.39s WALL (    2956 calls)
     cegterg:last :     91.07s CPU     92.55s WALL (    1287 calls)
     h_psi        :    680.15s CPU    746.96s WALL (    3527 calls)
     g_psi        :      3.54s CPU      3.64s WALL (    2956 calls)

     Called by h_psi:
     h_psi:calbec :    137.81s CPU    142.13s WALL (    3527 calls)
     vloc_psi     :    393.67s CPU    446.56s WALL (    3527 calls)
     add_vuspsi   :    137.03s CPU    140.68s WALL (    3527 calls)

     General routines
     calbec       :    180.37s CPU    185.49s WALL (    3747 calls)
     fft          :     14.97s CPU     18.41s WALL (    6022 calls)
     ffts         :      2.61s CPU      2.99s WALL (     569 calls)
     fftw         :    416.68s CPU    474.96s WALL (  425574 calls)
     davcio       :      0.02s CPU     12.89s WALL (     140 calls)

     Parallel routines

     PWSCF        :   1868.85s CPU   2191.52s WALL


   This run was terminated on:  13: 3:13   7May2025            

=------------------------------------------------------------------------------=
   JOB DONE.
=------------------------------------------------------------------------------=
