
     Program PWSCF v.7.3.1 starts on  7May2025 at 22: 6: 3 

     This program is part of the open-source Quantum ESPRESSO suite
     for quantum simulation of materials; please cite
         "P. Giannozzi et al., J. Phys.:Condens. Matter 21 395502 (2009);
         "P. Giannozzi et al., J. Phys.:Condens. Matter 29 465901 (2017);
         "P. Giannozzi et al., J. Chem. Phys. 152 154105 (2020);
          URL http://www.quantum-espresso.org", 
     in publications or presentations arising from this work. More details at
     http://www.quantum-espresso.org/quote

     Parallel version (MPI & OpenMP), running on     384 processor cores
     Number of MPI processes:               384
     Threads/MPI process:                     1

     MPI processes distributed on     2 nodes
     325359 MiB available memory on the printing compute node when the environment starts

     Waiting for input...
     Reading input from standard input
Warning: card &CELL ignored
Warning: card / ignored
Warning: card &FCP ignored
Warning: card / ignored
Warning: card &RISM ignored
Warning: card / ignored

     Current dimensions of program PWSCF are:
     Max number of different atomic species (ntypx) = 10
     Max number of k-points (npk) =  40000
     Max angular momentum in pseudopotentials (lmaxx) =  4

     IMPORTANT: XC functional enforced from input :
     Exchange-correlation= PBE
                           (   1   4   3   4   0   0   0)
     Any further DFT definition will be discarded
     Please, verify this is what you really want

     Message from routine setup:
     using ibrav=0 with symmetry is DISCOURAGED, use correct ibrav instead
     Message from routine setup:
     Dynamics, you should have no symmetries

     K-points division:     npool     =      16
     R & G space division:  proc/nbgrp/npool/nimage =      24
     Subspace diagonalization in iterative solution of the eigenvalue problem:
     a serial algorithm will be used

     Message from routine divide_et_impera:
     suboptimal parallelization: some nodes have no k-points

     Parallelization info
     --------------------
     sticks:   dense  smooth     PW     G-vecs:    dense   smooth      PW
     Min         205     205     54                53411    53411    7298
     Max         206     206     55                53446    53446    7320
     Sum        4939    4939   1303              1282343  1282343  175515

     Using Slab Decomposition



     bravais-lattice index     =            0
     lattice parameter (alat)  =      13.3936  a.u.
     unit-cell volume          =    9490.8392 (a.u.)^3
     number of atoms/cell      =           11
     number of atomic types    =            2
     number of electrons       =        95.00
     number of Kohn-Sham states=           58
     kinetic-energy cutoff     =     100.0000  Ry
     charge density cutoff     =     400.0000  Ry
     scf convergence threshold =      1.0E-12
     mixing beta               =       0.7000
     number of iterations used =            8  plain     mixing
     energy convergence thresh.=      1.0E-04
     force convergence thresh. =      1.0E-06
     Exchange-correlation= PBE
                           (   1   4   3   4   0   0   0)
     nstep                     =           50


     celldm(1)=  13.393593  celldm(2)=   0.000000  celldm(3)=   0.000000
     celldm(4)=   0.000000  celldm(5)=   0.000000  celldm(6)=   0.000000

     crystal axes: (cart. coord. in units of alat)
               a(1) = (   0.866025   0.500000   0.000000 )  
               a(2) = (  -0.866025   0.500000   0.000000 )  
               a(3) = (   0.000000   0.000000   4.561238 )  

     reciprocal axes: (cart. coord. in units 2 pi/alat)
               b(1) = (  0.577350  1.000000 -0.000000 )  
               b(2) = ( -0.577350  1.000000  0.000000 )  
               b(3) = (  0.000000 -0.000000  0.219239 )  


     PseudoPot. # 1 for Nb read from file:
     /scratch-shared/mroesner/Nb3X8_cDFPT/pp/Nb_ONCV_PBE-1.2.upf
     MD5 check sum: 2c750ac0b6910ff4cf0ab5f6c4124a64
     Pseudo is Norm-conserving, Zval = 13.0
     Generated using ONCVPSP code by D. R. Hamann
     Using radial grid of  602 points,  6 beta functions with: 
                l(1) =   0
                l(2) =   0
                l(3) =   1
                l(4) =   1
                l(5) =   2
                l(6) =   2

     PseudoPot. # 2 for Br read from file:
     /scratch-shared/mroesner/Nb3X8_cDFPT/pp/Br_ONCV_PBE-1.2.upf
     MD5 check sum: 5b50323dbf1c0ae0ed9e7f1e72c3f86c
     Pseudo is Norm-conserving, Zval =  7.0
     Generated using ONCVPSP code by D. R. Hamann
     Using radial grid of  602 points,  6 beta functions with: 
                l(1) =   0
                l(2) =   0
                l(3) =   1
                l(4) =   1
                l(5) =   2
                l(6) =   2

     atomic species   valence    mass     pseudopotential
     Nb               13.00    92.90637     Nb( 1.00)
     Br                7.00    79.90400     Br( 1.00)

      6 Sym. Ops. (no inversion) found


                                    s                        frac. trans.

      isym =  1     identity                                     

 cryst.   s( 1) = (     1          0          0      )
                  (     0          1          0      )
                  (     0          0          1      )

 cart.    s( 1) = (  1.0000000 -0.0000000  0.0000000 )
                  (  0.0000000  1.0000000  0.0000000 )
                  (  0.0000000  0.0000000  1.0000000 )


      isym =  2     120 deg rotation - cryst. axis [0,0,1]       

 cryst.   s( 2) = (     0          1          0      )
                  (    -1         -1          0      )
                  (     0          0          1      )

 cart.    s( 2) = ( -0.5000000 -0.8660254  0.0000000 )
                  (  0.8660254 -0.5000000  0.0000000 )
                  (  0.0000000  0.0000000  1.0000000 )


      isym =  3     120 deg rotation - cryst. axis [0,0,-1]      

 cryst.   s( 3) = (    -1         -1          0      )
                  (     1          0          0      )
                  (     0          0          1      )

 cart.    s( 3) = ( -0.5000000  0.8660254  0.0000000 )
                  ( -0.8660254 -0.5000000  0.0000000 )
                  (  0.0000000  0.0000000  1.0000000 )


      isym =  4     inv. 180 deg rotation - cart. axis [0,1,0]   

 cryst.   s( 4) = (     0         -1          0      )
                  (    -1          0          0      )
                  (     0          0          1      )

 cart.    s( 4) = (  1.0000000  0.0000000  0.0000000 )
                  (  0.0000000 -1.0000000  0.0000000 )
                  (  0.0000000  0.0000000  1.0000000 )


      isym =  5     inv. 180 deg rotation - cryst. axis [1,-1,0] 

 cryst.   s( 5) = (     1          1          0      )
                  (     0         -1          0      )
                  (     0          0          1      )

 cart.    s( 5) = ( -0.5000000  0.8660254  0.0000000 )
                  (  0.8660254  0.5000000  0.0000000 )
                  (  0.0000000  0.0000000  1.0000000 )


      isym =  6     inv. 180 deg rotation - cryst. axis [2,1,0]  

 cryst.   s( 6) = (    -1          0          0      )
                  (     1          1          0      )
                  (     0          0          1      )

 cart.    s( 6) = ( -0.5000000 -0.8660254  0.0000000 )
                  ( -0.8660254  0.5000000  0.0000000 )
                  (  0.0000000  0.0000000  1.0000000 )


   Cartesian axes

     site n.     atom                  positions (alat units)
         1        Nb     tau(   1) = (   0.2339559  -0.0000000  -0.4644863  )
         2        Nb     tau(   2) = (  -0.1169779   0.2026117  -0.4644863  )
         3        Nb     tau(   3) = (  -0.1169779  -0.2026117  -0.4644863  )
         4        Br     tau(   4) = (   0.0000000  -0.0000000  -0.7452599  )
         5        Br     tau(   5) = (  -0.8622048  -0.0000000  -0.6691649  )
         6        Br     tau(   6) = (  -0.4349230  -0.2466912  -0.6691649  )
         7        Br     tau(   7) = (  -0.4349230   0.2466912  -0.6691649  )
         8        Br     tau(   8) = (   0.5773503  -0.0000000  -0.2634304  )
         9        Br     tau(   9) = (  -0.2882750   0.0000000  -0.2171151  )
        10        Br     tau(  10) = (   0.1441375  -0.2496535  -0.2171151  )
        11        Br     tau(  11) = (   0.1441375   0.2496535  -0.2171151  )

     --------------------------------------------
     DFT-D3 Dispersion Correction (no 3-body):
     --------------------------------------------
       Reference C6 values for interpolation: 

         atom   Coordination number   C6
         Br         0.000           334.26
         Br         0.997           338.48
         Nb         0.000          2950.50
         Nb         1.954          1161.16
         Nb         2.922           857.79

       Values used:

         atom   Coordination number  R0_AB[au]  C6      C8
         Nb         8.069            3.647    857.79 111659.18
         Nb         8.069            3.647    857.79 111659.18
         Nb         8.069            3.647    857.79 111659.18
         Br         3.486            3.181    338.47  21401.43
         Br         2.741            3.181    338.47  21401.43
         Br         2.741            3.181    338.47  21401.43
         Br         2.741            3.181    338.47  21401.43
         Br         3.626            3.181    338.47  21401.43
         Br         2.687            3.181    338.47  21401.43
         Br         2.687            3.181    338.47  21401.43
         Br         2.687            3.181    338.47  21401.43

         Molecular C6 ( Ry / a.u.^6 ) =     54845.00


   Crystallographic axes

     site n.     atom                  positions (cryst. coord.)
         1        Nb     tau(   1) = (  0.1350745 -0.1350745 -0.1018334  )
         2        Nb     tau(   2) = (  0.1350745  0.2701490 -0.1018334  )
         3        Nb     tau(   3) = ( -0.2701490 -0.1350745 -0.1018334  )
         4        Br     tau(   4) = (  0.0000000 -0.0000000 -0.1633898  )
         5        Br     tau(   5) = ( -0.4977942  0.4977942 -0.1467069  )
         6        Br     tau(   6) = ( -0.4977942  0.0044117 -0.1467069  )
         7        Br     tau(   7) = ( -0.0044117  0.4977942 -0.1467069  )
         8        Br     tau(   8) = (  0.3333333 -0.3333333 -0.0577541  )
         9        Br     tau(   9) = ( -0.1664357  0.1664357 -0.0476000  )
        10        Br     tau(  10) = ( -0.1664357 -0.3328713 -0.0476000  )
        11        Br     tau(  11) = (  0.3328713  0.1664357 -0.0476000  )

     number of k points=     7  Marzari-Vanderbilt smearing, width (Ry)=  0.0037
                       cart. coord. in units 2pi/alat
        k(    1) = (   0.0000000   0.0000000   0.0000000), wk =   0.0555556
        k(    2) = (  -0.0962250   0.1666667   0.0000000), wk =   0.3333333
        k(    3) = (  -0.1924501   0.3333333   0.0000000), wk =   0.3333333
        k(    4) = (   0.2886751  -0.5000000   0.0000000), wk =   0.1666667
        k(    5) = (  -0.0000000   0.3333333   0.0000000), wk =   0.3333333
        k(    6) = (  -0.0962250   0.5000000   0.0000000), wk =   0.6666667
        k(    7) = (  -0.0000000   0.6666667   0.0000000), wk =   0.1111111

                       cryst. coord.
        k(    1) = (   0.0000000   0.0000000   0.0000000), wk =   0.0555556
        k(    2) = (  -0.0000000   0.1666667   0.0000000), wk =   0.3333333
        k(    3) = (  -0.0000000   0.3333333   0.0000000), wk =   0.3333333
        k(    4) = (   0.0000000  -0.5000000   0.0000000), wk =   0.1666667
        k(    5) = (   0.1666667   0.1666667   0.0000000), wk =   0.3333333
        k(    6) = (   0.1666667   0.3333333   0.0000000), wk =   0.6666667
        k(    7) = (   0.3333333   0.3333333   0.0000000), wk =   0.1111111

     Dense  grid:  1282343 G-vectors     FFT dimensions: (  90,  90, 400)

     Dynamical RAM for                 wfc:       5.91 MB

     Dynamical RAM for     wfc (w. buffer):       5.91 MB

     Dynamical RAM for           str. fact:       1.63 MB

     Dynamical RAM for           local pot:       0.00 MB

     Dynamical RAM for          nlocal pot:      20.17 MB

     Dynamical RAM for                qrad:       3.21 MB

     Dynamical RAM for          rho,v,vnew:       5.60 MB

     Dynamical RAM for               rhoin:       1.87 MB

     Dynamical RAM for            rho*nmix:      13.05 MB

     Dynamical RAM for           G-vectors:       3.47 MB

     Dynamical RAM for          h,s,v(r/c):       0.62 MB

     Dynamical RAM for          <psi|beta>:       0.18 MB

     Dynamical RAM for                 psi:      11.82 MB

     Dynamical RAM for                hpsi:      11.82 MB

     Dynamical RAM for      wfcinit/wfcrot:      11.90 MB

     Estimated static dynamical RAM per process >      49.55 MB

     Estimated max dynamical RAM per process >      87.03 MB

     Estimated total dynamical RAM >      28.05 GB

     Initial potential from superposition of free atoms

     starting charge      94.5747, renormalised to      95.0000

     negative rho (up, down):  1.656E-03 0.000E+00
     Starting wfcs are random

     total cpu time spent up to now is        3.0 secs

     per-process dynamical memory:   204.3 Mb

     Self-consistent Calculation

     iteration #  1     ecut=   100.00 Ry     beta= 0.70
     Davidson diagonalization with overlap

---- Real-time Memory Report at c_bands before calling an iterative solver
           230 MiB given to the printing process from OS
           199 MiB allocation reported by mallinfo(arena+hblkhd)
        310906 MiB available memory on the node where the printing process lives
------------------
     c_bands:  2 eigenvalues not converged
     ethr =  1.00E-02,  avg # of iterations = 19.6

     Threshold (ethr) on eigenvalues was too large:
     Diagonalizing with lowered threshold

     Davidson diagonalization with overlap

---- Real-time Memory Report at c_bands before calling an iterative solver
           247 MiB given to the printing process from OS
           199 MiB allocation reported by mallinfo(arena+hblkhd)
        309147 MiB available memory on the node where the printing process lives
------------------
     ethr =  4.50E-04,  avg # of iterations = 19.1

     negative rho (up, down):  1.609E-04 0.000E+00

     total cpu time spent up to now is        9.2 secs

     total energy              =    -558.94568555 Ry
     estimated scf accuracy    <       0.31848950 Ry

     iteration #  2     ecut=   100.00 Ry     beta= 0.70
     Davidson diagonalization with overlap

---- Real-time Memory Report at c_bands before calling an iterative solver
           247 MiB given to the printing process from OS
           203 MiB allocation reported by mallinfo(arena+hblkhd)
        310090 MiB available memory on the node where the printing process lives
------------------
     ethr =  3.35E-04,  avg # of iterations =  5.7

     negative rho (up, down):  9.714E-05 0.000E+00

     total cpu time spent up to now is       10.6 secs

     total energy              =    -558.97340877 Ry
     estimated scf accuracy    <       0.38624905 Ry

     iteration #  3     ecut=   100.00 Ry     beta= 0.70
     Davidson diagonalization with overlap

---- Real-time Memory Report at c_bands before calling an iterative solver
           262 MiB given to the printing process from OS
           205 MiB allocation reported by mallinfo(arena+hblkhd)
        310204 MiB available memory on the node where the printing process lives
------------------
     c_bands:  2 eigenvalues not converged
     ethr =  3.35E-04,  avg # of iterations =  6.9

     negative rho (up, down):  5.552E-05 0.000E+00

     total cpu time spent up to now is       12.2 secs

     total energy              =    -559.05219267 Ry
     estimated scf accuracy    <       0.11963502 Ry

     iteration #  4     ecut=   100.00 Ry     beta= 0.70
     Davidson diagonalization with overlap

---- Real-time Memory Report at c_bands before calling an iterative solver
           264 MiB given to the printing process from OS
           206 MiB allocation reported by mallinfo(arena+hblkhd)
        310101 MiB available memory on the node where the printing process lives
------------------
     ethr =  1.26E-04,  avg # of iterations =  3.3

     negative rho (up, down):  2.275E-05 0.000E+00

     total cpu time spent up to now is       13.2 secs

     total energy              =    -559.07472057 Ry
     estimated scf accuracy    <       0.00590885 Ry

     iteration #  5     ecut=   100.00 Ry     beta= 0.70
     Davidson diagonalization with overlap

---- Real-time Memory Report at c_bands before calling an iterative solver
           268 MiB given to the printing process from OS
           208 MiB allocation reported by mallinfo(arena+hblkhd)
        310100 MiB available memory on the node where the printing process lives
------------------
     ethr =  6.22E-06,  avg # of iterations = 15.4

     negative rho (up, down):  6.630E-06 0.000E+00

     total cpu time spent up to now is       15.2 secs

     total energy              =    -559.07708830 Ry
     estimated scf accuracy    <       0.00807763 Ry

     iteration #  6     ecut=   100.00 Ry     beta= 0.70
     Davidson diagonalization with overlap

---- Real-time Memory Report at c_bands before calling an iterative solver
           270 MiB given to the printing process from OS
           209 MiB allocation reported by mallinfo(arena+hblkhd)
        310023 MiB available memory on the node where the printing process lives
------------------
     ethr =  6.22E-06,  avg # of iterations =  3.9

     negative rho (up, down):  6.061E-07 0.000E+00

     total cpu time spent up to now is       16.3 secs

     total energy              =    -559.07858318 Ry
     estimated scf accuracy    <       0.00052234 Ry

     iteration #  7     ecut=   100.00 Ry     beta= 0.70
     Davidson diagonalization with overlap

---- Real-time Memory Report at c_bands before calling an iterative solver
           272 MiB given to the printing process from OS
           211 MiB allocation reported by mallinfo(arena+hblkhd)
        310020 MiB available memory on the node where the printing process lives
------------------
     ethr =  5.50E-07,  avg # of iterations = 10.1

     total cpu time spent up to now is       18.0 secs

     total energy              =    -559.07879379 Ry
     estimated scf accuracy    <       0.00006498 Ry

     iteration #  8     ecut=   100.00 Ry     beta= 0.70
     Davidson diagonalization with overlap

---- Real-time Memory Report at c_bands before calling an iterative solver
           275 MiB given to the printing process from OS
           213 MiB allocation reported by mallinfo(arena+hblkhd)
        309949 MiB available memory on the node where the printing process lives
------------------
     ethr =  6.84E-08,  avg # of iterations =  8.7

     negative rho (up, down):  3.318E-07 0.000E+00

     total cpu time spent up to now is       19.9 secs

     total energy              =    -559.07883992 Ry
     estimated scf accuracy    <       0.00001101 Ry

     iteration #  9     ecut=   100.00 Ry     beta= 0.70
     Davidson diagonalization with overlap

---- Real-time Memory Report at c_bands before calling an iterative solver
           275 MiB given to the printing process from OS
           214 MiB allocation reported by mallinfo(arena+hblkhd)
        309938 MiB available memory on the node where the printing process lives
------------------
     ethr =  1.16E-08,  avg # of iterations =  6.7

     negative rho (up, down):  4.715E-07 0.000E+00

     total cpu time spent up to now is       21.4 secs

     total energy              =    -559.07884412 Ry
     estimated scf accuracy    <       0.00000298 Ry

     iteration # 10     ecut=   100.00 Ry     beta= 0.70
     Davidson diagonalization with overlap

---- Real-time Memory Report at c_bands before calling an iterative solver
           277 MiB given to the printing process from OS
           216 MiB allocation reported by mallinfo(arena+hblkhd)
        309869 MiB available memory on the node where the printing process lives
------------------
     ethr =  3.14E-09,  avg # of iterations =  6.1

     negative rho (up, down):  4.965E-08 0.000E+00

     total cpu time spent up to now is       23.0 secs

     total energy              =    -559.07884534 Ry
     estimated scf accuracy    <       0.00000020 Ry

     iteration # 11     ecut=   100.00 Ry     beta= 0.70
     Davidson diagonalization with overlap

---- Real-time Memory Report at c_bands before calling an iterative solver
           279 MiB given to the printing process from OS
           216 MiB allocation reported by mallinfo(arena+hblkhd)
        309910 MiB available memory on the node where the printing process lives
------------------
     ethr =  2.08E-10,  avg # of iterations = 18.7

     negative rho (up, down):  3.149E-08 0.000E+00

     total cpu time spent up to now is       25.1 secs

     total energy              =    -559.07884551 Ry
     estimated scf accuracy    <       0.00000007 Ry

     iteration # 12     ecut=   100.00 Ry     beta= 0.70
     Davidson diagonalization with overlap

---- Real-time Memory Report at c_bands before calling an iterative solver
           281 MiB given to the printing process from OS
           216 MiB allocation reported by mallinfo(arena+hblkhd)
        309873 MiB available memory on the node where the printing process lives
------------------
     ethr =  7.45E-11,  avg # of iterations =  3.7

     total cpu time spent up to now is       26.2 secs

     total energy              =    -559.07884552 Ry
     estimated scf accuracy    <          9.0E-09 Ry

     iteration # 13     ecut=   100.00 Ry     beta= 0.70
     Davidson diagonalization with overlap

---- Real-time Memory Report at c_bands before calling an iterative solver
           281 MiB given to the printing process from OS
           216 MiB allocation reported by mallinfo(arena+hblkhd)
        309915 MiB available memory on the node where the printing process lives
------------------
     ethr =  9.47E-12,  avg # of iterations = 11.1

     total cpu time spent up to now is       27.9 secs

     total energy              =    -559.07884552 Ry
     estimated scf accuracy    <          9.1E-10 Ry

     iteration # 14     ecut=   100.00 Ry     beta= 0.70
     Davidson diagonalization with overlap

---- Real-time Memory Report at c_bands before calling an iterative solver
           281 MiB given to the printing process from OS
           216 MiB allocation reported by mallinfo(arena+hblkhd)
        309889 MiB available memory on the node where the printing process lives
------------------
     ethr =  9.61E-13,  avg # of iterations =  6.7

     total cpu time spent up to now is       29.6 secs

     total energy              =    -559.07884552 Ry
     estimated scf accuracy    <          2.9E-10 Ry

     iteration # 15     ecut=   100.00 Ry     beta= 0.70
     Davidson diagonalization with overlap

---- Real-time Memory Report at c_bands before calling an iterative solver
           281 MiB given to the printing process from OS
           216 MiB allocation reported by mallinfo(arena+hblkhd)
        309912 MiB available memory on the node where the printing process lives
------------------
     ethr =  3.08E-13,  avg # of iterations =  7.4

     total cpu time spent up to now is       31.3 secs

     total energy              =    -559.07884552 Ry
     estimated scf accuracy    <          6.4E-11 Ry

     iteration # 16     ecut=   100.00 Ry     beta= 0.70
     Davidson diagonalization with overlap

---- Real-time Memory Report at c_bands before calling an iterative solver
           281 MiB given to the printing process from OS
           216 MiB allocation reported by mallinfo(arena+hblkhd)
        309893 MiB available memory on the node where the printing process lives
------------------
     ethr =  1.00E-13,  avg # of iterations =  8.4

     total cpu time spent up to now is       32.9 secs

     total energy              =    -559.07884552 Ry
     estimated scf accuracy    <          1.2E-11 Ry

     iteration # 17     ecut=   100.00 Ry     beta= 0.70
     Davidson diagonalization with overlap

---- Real-time Memory Report at c_bands before calling an iterative solver
           281 MiB given to the printing process from OS
           216 MiB allocation reported by mallinfo(arena+hblkhd)
        309933 MiB available memory on the node where the printing process lives
------------------
     ethr =  1.00E-13,  avg # of iterations =  1.0

     total cpu time spent up to now is       33.7 secs

     total energy              =    -559.07884552 Ry
     estimated scf accuracy    <          1.9E-12 Ry

     iteration # 18     ecut=   100.00 Ry     beta= 0.70
     Davidson diagonalization with overlap

---- Real-time Memory Report at c_bands before calling an iterative solver
           281 MiB given to the printing process from OS
           216 MiB allocation reported by mallinfo(arena+hblkhd)
        309885 MiB available memory on the node where the printing process lives
------------------
     ethr =  1.00E-13,  avg # of iterations =  1.0

     total cpu time spent up to now is       35.1 secs

     End of self-consistent calculation

          k = 0.0000 0.0000 0.0000 (160347 PWs)   bands (ev):

   -57.8225 -57.7464 -57.7464 -34.1731 -34.0114 -34.0114 -34.0113 -33.9155
   -33.9155 -33.6997 -33.5453 -33.5453 -18.9541 -18.4451 -17.8714 -17.8598
   -17.8598 -17.6418 -17.2846 -17.2846  -8.4761  -8.4761  -8.1462  -7.9391
    -7.5785  -7.5785  -7.3564  -7.2857  -6.8585  -6.8585  -6.2003  -5.9861
    -5.9861  -5.7726  -5.6967  -5.6967  -5.3494  -5.3494  -5.3057  -5.1908
    -4.5820  -4.5820  -3.9081  -3.9081  -3.5738  -2.9984  -2.9984  -1.9352
    -1.0555  -1.0555  -0.4226  -0.2365  -0.2365   0.1794   0.2153   0.2153
     0.4251   0.4251

     occupation numbers 
     1.0000   1.0000   1.0000   1.0000   1.0000   1.0000   1.0000   1.0000
     1.0000   1.0000   1.0000   1.0000   1.0000   1.0000   1.0000   1.0000
     1.0000   1.0000   1.0000   1.0000   1.0000   1.0000   1.0000   1.0000
     1.0000   1.0000   1.0000   1.0000   1.0000   1.0000   1.0000   1.0000
     1.0000   1.0000   1.0000   1.0000   1.0000   1.0000   1.0000   1.0000
     1.0000   1.0000   1.0000   1.0000   1.0000   1.0000   1.0000   0.2449
     0.0000   0.0000   0.0000   0.0000   0.0000   0.0000   0.0000   0.0000
     0.0000   0.0000

          k =-0.0962 0.1667 0.0000 (160353 PWs)   bands (ev):

   -57.8224 -57.7465 -57.7464 -34.1701 -34.0109 -34.0103 -34.0092 -33.9164
   -33.9156 -33.7013 -33.5494 -33.5461 -18.9377 -18.4170 -17.9109 -17.8665
   -17.8597 -17.6283 -17.3115 -17.2856  -8.3828  -8.3816  -8.0192  -7.9176
    -7.5665  -7.5320  -7.2841  -7.2003  -6.8810  -6.8701  -6.1938  -6.1575
    -5.9883  -5.9595  -5.7801  -5.5984  -5.4628  -5.4491  -5.2781  -5.1335
    -4.7546  -4.5925  -4.1835  -3.9608  -3.6355  -3.0098  -2.9780  -1.9320
    -1.0413  -1.0405  -0.4312  -0.2835  -0.2566  -0.0038   0.0768   0.1834
     0.4404   0.6094

     occupation numbers 
     1.0000   1.0000   1.0000   1.0000   1.0000   1.0000   1.0000   1.0000
     1.0000   1.0000   1.0000   1.0000   1.0000   1.0000   1.0000   1.0000
     1.0000   1.0000   1.0000   1.0000   1.0000   1.0000   1.0000   1.0000
     1.0000   1.0000   1.0000   1.0000   1.0000   1.0000   1.0000   1.0000
     1.0000   1.0000   1.0000   1.0000   1.0000   1.0000   1.0000   1.0000
     1.0000   1.0000   1.0000   1.0000   1.0000   1.0000   1.0000   0.2130
     0.0000   0.0000   0.0000   0.0000   0.0000   0.0000   0.0000   0.0000
     0.0000   0.0000

          k =-0.1925 0.3333 0.0000 (160313 PWs)   bands (ev):

   -57.8222 -57.7467 -57.7464 -34.1643 -34.0098 -34.0082 -34.0046 -33.9183
   -33.9157 -33.7045 -33.5577 -33.5477 -18.9052 -18.3306 -18.0290 -17.8707
   -17.8595 -17.5957 -17.3708 -17.2875  -8.1644  -8.1572  -7.9334  -7.6418
    -7.5042  -7.3294  -7.1855  -7.0490  -6.9462  -6.9202  -6.4278  -6.2769
    -6.2362  -6.0148  -5.9148  -5.7285  -5.6200  -5.5729  -5.2263  -5.1763
    -4.9502  -4.6596  -4.6559  -4.0576  -3.7448  -3.0444  -2.9390  -1.9728
    -1.0137  -0.9890  -0.5306  -0.3695  -0.3179  -0.1640   0.0415   0.1374
     0.3361   0.6388

     occupation numbers 
     1.0000   1.0000   1.0000   1.0000   1.0000   1.0000   1.0000   1.0000
     1.0000   1.0000   1.0000   1.0000   1.0000   1.0000   1.0000   1.0000
     1.0000   1.0000   1.0000   1.0000   1.0000   1.0000   1.0000   1.0000
     1.0000   1.0000   1.0000   1.0000   1.0000   1.0000   1.0000   1.0000
     1.0000   1.0000   1.0000   1.0000   1.0000   1.0000   1.0000   1.0000
     1.0000   1.0000   1.0000   1.0000   1.0000   1.0000   1.0000   0.7653
     0.0000   0.0000   0.0000   0.0000   0.0000   0.0000   0.0000   0.0000
     0.0000   0.0000

          k = 0.2887-0.5000 0.0000 (160226 PWs)   bands (ev):

   -57.8220 -57.7469 -57.7464 -34.1613 -34.0091 -34.0072 -34.0022 -33.9192
   -33.9158 -33.7062 -33.5619 -33.5485 -18.8893 -18.2173 -18.1583 -17.8727
   -17.8594 -17.5727 -17.4065 -17.2885  -8.0595  -8.0373  -7.8019  -7.5347
    -7.3915  -7.2786  -7.0824  -7.0672  -6.9871  -6.7203  -6.6135  -6.4334
    -6.4091  -6.0087  -6.0040  -5.9106  -5.7443  -5.6270  -5.2278  -5.1033
    -4.9959  -4.8681  -4.7160  -4.0994  -3.7926  -3.0682  -2.9224  -2.0090
    -0.9974  -0.9499  -0.6003  -0.3975  -0.3664  -0.2169   0.0535   0.1293
     0.2722   0.6261

     occupation numbers 
     1.0000   1.0000   1.0000   1.0000   1.0000   1.0000   1.0000   1.0000
     1.0000   1.0000   1.0000   1.0000   1.0000   1.0000   1.0000   1.0000
     1.0000   1.0000   1.0000   1.0000   1.0000   1.0000   1.0000   1.0000
     1.0000   1.0000   1.0000   1.0000   1.0000   1.0000   1.0000   1.0000
     1.0000   1.0000   1.0000   1.0000   1.0000   1.0000   1.0000   1.0000
     1.0000   1.0000   1.0000   1.0000   1.0000   1.0000   1.0000   1.0725
     0.0000   0.0000   0.0000   0.0000   0.0000   0.0000   0.0000   0.0000
     0.0000   0.0000

          k =-0.0000 0.3333 0.0000 (160321 PWs)   bands (ev):

   -57.8222 -57.7467 -57.7464 -34.1657 -34.0097 -34.0089 -34.0061 -33.9176
   -33.9158 -33.7037 -33.5551 -33.5478 -18.9133 -18.3593 -17.9618 -17.9329
   -17.8263 -17.6046 -17.3601 -17.2826  -8.2274  -8.2200  -7.9166  -7.7625
    -7.5386  -7.3758  -7.2177  -7.0533  -6.9507  -6.8878  -6.3825  -6.2575
    -6.1227  -6.0407  -5.9453  -5.6439  -5.4996  -5.4692  -5.3481  -5.0919
    -4.9546  -4.7271  -4.4477  -4.1061  -3.6931  -3.0392  -2.9449  -1.9427
    -1.0845  -0.9483  -0.4619  -0.3716  -0.2924  -0.1245  -0.0078   0.1368
     0.4006   0.7261

     occupation numbers 
     1.0000   1.0000   1.0000   1.0000   1.0000   1.0000   1.0000   1.0000
     1.0000   1.0000   1.0000   1.0000   1.0000   1.0000   1.0000   1.0000
     1.0000   1.0000   1.0000   1.0000   1.0000   1.0000   1.0000   1.0000
     1.0000   1.0000   1.0000   1.0000   1.0000   1.0000   1.0000   1.0000
     1.0000   1.0000   1.0000   1.0000   1.0000   1.0000   1.0000   1.0000
     1.0000   1.0000   1.0000   1.0000   1.0000   1.0000   1.0000   0.3321
     0.0000   0.0000   0.0000   0.0000   0.0000   0.0000   0.0000   0.0000
     0.0000   0.0000

          k =-0.0962 0.5000 0.0000 (160239 PWs)   bands (ev):

   -57.8220 -57.7469 -57.7464 -34.1612 -34.0082 -34.0072 -34.0034 -33.9187
   -33.9163 -33.7061 -33.5607 -33.5497 -18.8896 -18.2476 -18.0871 -17.9663
   -17.8049 -17.5691 -17.4219 -17.2780  -8.1017  -7.9809  -7.7841  -7.5769
    -7.4557  -7.2016  -7.0894  -7.0304  -6.9544  -6.8239  -6.6287  -6.4568
    -6.3034  -6.1102  -6.0832  -5.8264  -5.6795  -5.4581  -5.2675  -5.2384
    -4.9810  -4.8433  -4.6842  -4.2435  -3.7283  -3.0672  -2.9385  -1.9575
    -1.1088  -0.8625  -0.5222  -0.3878  -0.3639  -0.2455  -0.0705   0.1351
     0.3827   0.6847

     occupation numbers 
     1.0000   1.0000   1.0000   1.0000   1.0000   1.0000   1.0000   1.0000
     1.0000   1.0000   1.0000   1.0000   1.0000   1.0000   1.0000   1.0000
     1.0000   1.0000   1.0000   1.0000   1.0000   1.0000   1.0000   1.0000
     1.0000   1.0000   1.0000   1.0000   1.0000   1.0000   1.0000   1.0000
     1.0000   1.0000   1.0000   1.0000   1.0000   1.0000   1.0000   1.0000
     1.0000   1.0000   1.0000   1.0000   1.0000   1.0000   1.0000   0.5390
     0.0000   0.0000   0.0000   0.0000   0.0000   0.0000   0.0000   0.0000
     0.0000   0.0000

          k =-0.0000 0.6667 0.0000 (160113 PWs)   bands (ev):

   -57.8220 -57.7469 -57.7464 -34.1597 -34.0069 -34.0057 -34.0044 -33.9182
   -33.9172 -33.7068 -33.5614 -33.5515 -18.8821 -18.1594 -18.1042 -18.0671
   -17.7824 -17.5413 -17.4662 -17.2695  -8.0850  -7.7614  -7.7511  -7.6135
    -7.4033  -7.1848  -7.0837  -7.0389  -6.7963  -6.7441  -6.7259  -6.5045
    -6.3529  -6.2852  -6.2612  -5.7546  -5.6820  -5.4644  -5.3707  -5.2644
    -4.9199  -4.8278  -4.7459  -4.4247  -3.7007  -3.0656  -2.9698  -1.9178
    -1.1658  -0.8016  -0.4465  -0.3781  -0.3471  -0.3395  -0.2432   0.1890
     0.5478   0.5665

     occupation numbers 
     1.0000   1.0000   1.0000   1.0000   1.0000   1.0000   1.0000   1.0000
     1.0000   1.0000   1.0000   1.0000   1.0000   1.0000   1.0000   1.0000
     1.0000   1.0000   1.0000   1.0000   1.0000   1.0000   1.0000   1.0000
     1.0000   1.0000   1.0000   1.0000   1.0000   1.0000   1.0000   1.0000
     1.0000   1.0000   1.0000   1.0000   1.0000   1.0000   1.0000   1.0000
     1.0000   1.0000   1.0000   1.0000   1.0000   1.0000   1.0000   0.1037
     0.0000   0.0000   0.0000   0.0000   0.0000   0.0000   0.0000   0.0000
     0.0000   0.0000

     the Fermi energy is    -1.9480 ev

!    total energy              =    -559.07884552 Ry
     estimated scf accuracy    <          3.6E-14 Ry
     smearing contrib. (-TS)   =      -0.00083768 Ry
     internal energy E=F+TS    =    -559.07800784 Ry

     convergence has been achieved in  18 iterations

     Forces acting on atoms (cartesian axes, Ry/au):

     atom    1 type  1   force =     0.00377176    0.00000000   -0.00627246
     atom    2 type  1   force =    -0.00188588    0.00326644   -0.00627246
     atom    3 type  1   force =    -0.00188588   -0.00326644   -0.00627246
     atom    4 type  2   force =     0.00000000    0.00000000   -0.00072162
     atom    5 type  2   force =     0.00054828   -0.00000000    0.00134127
     atom    6 type  2   force =    -0.00027414    0.00047482    0.00134127
     atom    7 type  2   force =    -0.00027414   -0.00047482    0.00134127
     atom    8 type  2   force =     0.00000000    0.00000000   -0.00006634
     atom    9 type  2   force =    -0.00080233    0.00000000    0.00519384
     atom   10 type  2   force =     0.00040116   -0.00069484    0.00519384
     atom   11 type  2   force =     0.00040116    0.00069484    0.00519384
     The non-local contrib.  to forces
     atom    1 type  1   force =    -0.20451294   -0.00000000   -0.03561724
     atom    2 type  1   force =     0.10225647   -0.17711340   -0.03561724
     atom    3 type  1   force =     0.10225647    0.17711340   -0.03561724
     atom    4 type  2   force =     0.00000000    0.00000000    0.23133164
     atom    5 type  2   force =    -0.08635991   -0.00000000    0.13875216
     atom    6 type  2   force =     0.04317995   -0.07478988    0.13875216
     atom    7 type  2   force =     0.04317995    0.07478988    0.13875216
     atom    8 type  2   force =     0.00000000    0.00000000   -0.15776245
     atom    9 type  2   force =     0.11069157   -0.00000000   -0.15802851
     atom   10 type  2   force =    -0.05534579    0.09586172   -0.15802851
     atom   11 type  2   force =    -0.05534579   -0.09586172   -0.15802851
     The ionic contribution  to forces
     atom    1 type  1   force =     9.59138383   -0.00000000   -0.95004076
     atom    2 type  1   force =    -4.79569192    8.30638205   -0.95004076
     atom    3 type  1   force =    -4.79569192   -8.30638205   -0.95004076
     atom    4 type  2   force =     0.00000000   -0.00000000  -39.05054373
     atom    5 type  2   force =     2.90348663   -0.00000000  -26.70322850
     atom    6 type  2   force =    -1.45174331    2.51449318  -26.70322850
     atom    7 type  2   force =    -1.45174331   -2.51449318  -26.70322850
     atom    8 type  2   force =     0.00000000   -0.00000000   26.56589325
     atom    9 type  2   force =    -5.84225390   -0.00000000   31.81481942
     atom   10 type  2   force =     2.92112695   -5.05954029   31.81481942
     atom   11 type  2   force =     2.92112695    5.05954029   31.81481942
     The local contribution  to forces
     atom    1 type  1   force =    -9.38148992   -0.00000000    0.97933100
     atom    2 type  1   force =     4.69074490   -8.12460857    0.97933100
     atom    3 type  1   force =     4.69074490    8.12460857    0.97933100
     atom    4 type  2   force =     0.00000000    0.00000000   38.81741956
     atom    5 type  2   force =    -2.81735760    0.00000000   26.56476096
     atom    6 type  2   force =     1.40867879   -2.43990324   26.56476096
     atom    7 type  2   force =     1.40867879    2.43990324   26.56476096
     atom    8 type  2   force =     0.00000000    0.00000000  -26.40880240
     atom    9 type  2   force =     5.73132404    0.00000000  -31.64991456
     atom   10 type  2   force =    -2.86566201    4.96347221  -31.64991457
     atom   11 type  2   force =    -2.86566201   -4.96347221  -31.64991457
     The core correction contribution to forces
     atom    1 type  1   force =     0.00000000    0.00000000    0.00000000
     atom    2 type  1   force =     0.00000000    0.00000000    0.00000000
     atom    3 type  1   force =     0.00000000    0.00000000    0.00000000
     atom    4 type  2   force =     0.00000000    0.00000000    0.00000000
     atom    5 type  2   force =     0.00000000    0.00000000    0.00000000
     atom    6 type  2   force =     0.00000000    0.00000000    0.00000000
     atom    7 type  2   force =     0.00000000    0.00000000    0.00000000
     atom    8 type  2   force =     0.00000000    0.00000000    0.00000000
     atom    9 type  2   force =     0.00000000    0.00000000    0.00000000
     atom   10 type  2   force =     0.00000000    0.00000000    0.00000000
     atom   11 type  2   force =     0.00000000    0.00000000    0.00000000
     The Hubbard contrib.    to forces
     atom    1 type  1   force =     0.00000000    0.00000000    0.00000000
     atom    2 type  1   force =     0.00000000    0.00000000    0.00000000
     atom    3 type  1   force =     0.00000000    0.00000000    0.00000000
     atom    4 type  2   force =     0.00000000    0.00000000    0.00000000
     atom    5 type  2   force =     0.00000000    0.00000000    0.00000000
     atom    6 type  2   force =     0.00000000    0.00000000    0.00000000
     atom    7 type  2   force =     0.00000000    0.00000000    0.00000000
     atom    8 type  2   force =     0.00000000    0.00000000    0.00000000
     atom    9 type  2   force =     0.00000000    0.00000000    0.00000000
     atom   10 type  2   force =     0.00000000    0.00000000    0.00000000
     atom   11 type  2   force =     0.00000000    0.00000000    0.00000000
     The SCF correction term to forces
     atom    1 type  1   force =     0.00000007   -0.00000000    0.00000009
     atom    2 type  1   force =    -0.00000003    0.00000006    0.00000009
     atom    3 type  1   force =    -0.00000003   -0.00000006    0.00000009
     atom    4 type  2   force =     0.00000000    0.00000000   -0.00000006
     atom    5 type  2   force =     0.00000007   -0.00000000    0.00000004
     atom    6 type  2   force =    -0.00000003    0.00000006    0.00000004
     atom    7 type  2   force =    -0.00000003   -0.00000006    0.00000004
     atom    8 type  2   force =    -0.00000000   -0.00000000   -0.00000012
     atom    9 type  2   force =    -0.00000011   -0.00000000   -0.00000014
     atom   10 type  2   force =     0.00000005   -0.00000009   -0.00000014
     atom   11 type  2   force =     0.00000005    0.00000009   -0.00000014

     DFT-D3 dispersion contribution to forces:
     atom    1 type  1   force =    -0.00160931    0.00000000    0.00005786
     atom    2 type  1   force =     0.00080465   -0.00139370    0.00005786
     atom    3 type  1   force =     0.00080465    0.00139370    0.00005786
     atom    4 type  2   force =     0.00000000   -0.00000000    0.00107439
     atom    5 type  2   force =     0.00077909    0.00000000    0.00106003
     atom    6 type  2   force =    -0.00038954    0.00067471    0.00106003
     atom    7 type  2   force =    -0.00038954   -0.00067471    0.00106003
     atom    8 type  2   force =    -0.00000000    0.00000000    0.00060879
     atom    9 type  2   force =    -0.00056393   -0.00000000   -0.00167895
     atom   10 type  2   force =     0.00028197   -0.00048838   -0.00167895
     atom   11 type  2   force =     0.00028197    0.00048838   -0.00167895

     Total force =     0.015824     Total SCF correction =     0.000000

     DFT-D3 dispersion Force =     0.004889


     Computing stress (Cartesian axis) and pressure

          total   stress  (Ry/bohr**3)                   (kbar)     P=        0.91
   0.00000715  -0.00000000   0.00000000            1.05       -0.00        0.00
  -0.00000000   0.00000715   0.00000000           -0.00        1.05        0.00
   0.00000000   0.00000000   0.00000428            0.00        0.00        0.63

     kinetic stress (kbar)   1817.66      0.00     -0.00
                               -0.00   1817.66     -0.00
                                0.00     -0.00   1796.33

     local   stress (kbar) -84889.88      0.00     -0.00
                                0.00 -84889.88     -0.00
                               -0.00     -0.00  83362.90

     nonloc. stress (kbar)    965.41     -0.00     -0.00
                               -0.00    965.41      0.00
                                0.00      0.00    969.70

     hartree stress (kbar)  42070.02      0.00      0.00
                                0.00  42070.02      0.00
                                0.00      0.00 -40860.88

     exc-cor stress (kbar)   -400.67     -0.00      0.00
                               -0.00   -400.67     -0.00
                                0.00     -0.00   -401.77

     corecor stress (kbar)      0.00      0.00      0.00
                                0.00      0.00      0.00
                                0.00      0.00      0.00

     ewald   stress (kbar)  40440.19     -0.00      0.00
                               -0.00  40440.19     -0.00
                                0.00     -0.00 -44865.21

     hubbard stress (kbar)      0.00      0.00      0.00
                                0.00      0.00      0.00
                                0.00      0.00      0.00

     DFT-D   stress (kbar)     -1.68     -0.00     -0.00
                               -0.00     -1.68      0.00
                               -0.00      0.00     -0.43

     XDM     stress (kbar)      0.00      0.00      0.00
                                0.00      0.00      0.00
                                0.00      0.00      0.00

     dft-nl  stress (kbar)      0.00      0.00      0.00
                                0.00      0.00      0.00
                                0.00      0.00      0.00

     TS-vdW  stress (kbar)      0.00      0.00      0.00
                                0.00      0.00      0.00
                                0.00      0.00      0.00

     MDB     stress (kbar)      0.00      0.00      0.00
                                0.00      0.00      0.00
                                0.00      0.00      0.00

     3D-RISM stress (kbar)      0.00      0.00      0.00
                                0.00      0.00      0.00
                                0.00      0.00      0.00


     Damped Dynamics Calculation

     Entering Dynamics:    iteration =     1

ATOMIC_POSITIONS (crystal)
Nb               0.1351458496       -0.1351458496       -0.1018784473
Nb               0.1351458496        0.2702916991       -0.1018784473
Nb              -0.2702916991       -0.1351458496       -0.1018784473
Br              -0.0000000000       -0.0000000000       -0.1633950206
Br              -0.4977837902        0.4977837902       -0.1466972402
Br              -0.4977837902        0.0044324196       -0.1466972402
Br              -0.0044324196        0.4977837902       -0.1466972402
Br               0.3333333333       -0.3333333333       -0.0577546251
Br              -0.1664508449        0.1664508449       -0.0475627235
Br              -0.1664508449       -0.3329016897       -0.0475627235
Br               0.3329016897        0.1664508449       -0.0475627235



     Writing config-only to output data dir ./out/Nb3Br8.save/ :
     XML data file
     NEW-OLD atomic charge density approx. for the potential

     negative rho (up, down):  4.039E-05 0.000E+00

     total cpu time spent up to now is       84.0 secs

     per-process dynamical memory:   221.6 Mb

     Self-consistent Calculation

     iteration #  1     ecut=   100.00 Ry     beta= 0.70
     Davidson diagonalization with overlap

---- Real-time Memory Report at c_bands before calling an iterative solver
           349 MiB given to the printing process from OS
           216 MiB allocation reported by mallinfo(arena+hblkhd)
        309297 MiB available memory on the node where the printing process lives
------------------
     ethr =  1.00E-06,  avg # of iterations =  3.0

     Threshold (ethr) on eigenvalues was too large:
     Diagonalizing with lowered threshold

     Davidson diagonalization with overlap

---- Real-time Memory Report at c_bands before calling an iterative solver
           349 MiB given to the printing process from OS
           216 MiB allocation reported by mallinfo(arena+hblkhd)
        308739 MiB available memory on the node where the printing process lives
------------------
     ethr =  1.29E-08,  avg # of iterations = 13.1

     negative rho (up, down):  1.116E-05 0.000E+00

     total cpu time spent up to now is       88.5 secs

     total energy              =    -559.07893730 Ry
     estimated scf accuracy    <       0.00001092 Ry

     iteration #  2     ecut=   100.00 Ry     beta= 0.70
     Davidson diagonalization with overlap

---- Real-time Memory Report at c_bands before calling an iterative solver
           349 MiB given to the printing process from OS
           216 MiB allocation reported by mallinfo(arena+hblkhd)
        308727 MiB available memory on the node where the printing process lives
------------------
     ethr =  1.15E-08,  avg # of iterations =  9.9

     negative rho (up, down):  8.960E-06 0.000E+00

     total cpu time spent up to now is       90.0 secs

     total energy              =    -559.07893278 Ry
     estimated scf accuracy    <       0.00007424 Ry

     iteration #  3     ecut=   100.00 Ry     beta= 0.70
     Davidson diagonalization with overlap

---- Real-time Memory Report at c_bands before calling an iterative solver
           349 MiB given to the printing process from OS
           220 MiB allocation reported by mallinfo(arena+hblkhd)
        308484 MiB available memory on the node where the printing process lives
------------------
     ethr =  1.15E-08,  avg # of iterations =  6.6

     negative rho (up, down):  4.315E-06 0.000E+00

     total cpu time spent up to now is       91.5 secs

     total energy              =    -559.07894373 Ry
     estimated scf accuracy    <       0.00000048 Ry

     iteration #  4     ecut=   100.00 Ry     beta= 0.70
     Davidson diagonalization with overlap

---- Real-time Memory Report at c_bands before calling an iterative solver
           349 MiB given to the printing process from OS
           222 MiB allocation reported by mallinfo(arena+hblkhd)
        308428 MiB available memory on the node where the printing process lives
------------------
     c_bands:  1 eigenvalues not converged
     ethr =  5.06E-10,  avg # of iterations = 16.1

     negative rho (up, down):  1.488E-06 0.000E+00

     total cpu time spent up to now is       93.4 secs

     total energy              =    -559.07894405 Ry
     estimated scf accuracy    <       0.00000017 Ry

     iteration #  5     ecut=   100.00 Ry     beta= 0.70
     Davidson diagonalization with overlap

---- Real-time Memory Report at c_bands before calling an iterative solver
           349 MiB given to the printing process from OS
           224 MiB allocation reported by mallinfo(arena+hblkhd)
        308394 MiB available memory on the node where the printing process lives
------------------
     ethr =  1.78E-10,  avg # of iterations =  8.3

     negative rho (up, down):  6.161E-07 0.000E+00

     total cpu time spent up to now is       95.0 secs

     total energy              =    -559.07894407 Ry
     estimated scf accuracy    <       0.00000013 Ry

     iteration #  6     ecut=   100.00 Ry     beta= 0.70
     Davidson diagonalization with overlap

---- Real-time Memory Report at c_bands before calling an iterative solver
           349 MiB given to the printing process from OS
           225 MiB allocation reported by mallinfo(arena+hblkhd)
        308359 MiB available memory on the node where the printing process lives
------------------
     ethr =  1.38E-10,  avg # of iterations =  3.1

     negative rho (up, down):  1.171E-07 0.000E+00

     total cpu time spent up to now is       96.0 secs

     total energy              =    -559.07894408 Ry
     estimated scf accuracy    <          4.7E-09 Ry

     iteration #  7     ecut=   100.00 Ry     beta= 0.70
     Davidson diagonalization with overlap

---- Real-time Memory Report at c_bands before calling an iterative solver
           349 MiB given to the printing process from OS
           227 MiB allocation reported by mallinfo(arena+hblkhd)
        308318 MiB available memory on the node where the printing process lives
------------------
     ethr =  4.92E-12,  avg # of iterations = 17.4

     total cpu time spent up to now is       98.1 secs

     total energy              =    -559.07894409 Ry
     estimated scf accuracy    <          1.0E-09 Ry

     iteration #  8     ecut=   100.00 Ry     beta= 0.70
     Davidson diagonalization with overlap

---- Real-time Memory Report at c_bands before calling an iterative solver
           349 MiB given to the printing process from OS
           229 MiB allocation reported by mallinfo(arena+hblkhd)
        308286 MiB available memory on the node where the printing process lives
------------------
     ethr =  1.07E-12,  avg # of iterations =  5.3

     total cpu time spent up to now is       99.6 secs

     total energy              =    -559.07894409 Ry
     estimated scf accuracy    <          2.7E-10 Ry

     iteration #  9     ecut=   100.00 Ry     beta= 0.70
     Davidson diagonalization with overlap

---- Real-time Memory Report at c_bands before calling an iterative solver
           349 MiB given to the printing process from OS
           230 MiB allocation reported by mallinfo(arena+hblkhd)
        308237 MiB available memory on the node where the printing process lives
------------------
     ethr =  2.83E-13,  avg # of iterations =  4.7

     total cpu time spent up to now is      101.3 secs

     total energy              =    -559.07894409 Ry
     estimated scf accuracy    <          1.9E-11 Ry

     iteration # 10     ecut=   100.00 Ry     beta= 0.70
     Davidson diagonalization with overlap

---- Real-time Memory Report at c_bands before calling an iterative solver
           349 MiB given to the printing process from OS
           232 MiB allocation reported by mallinfo(arena+hblkhd)
        308204 MiB available memory on the node where the printing process lives
------------------
     ethr =  1.00E-13,  avg # of iterations =  5.6

     total cpu time spent up to now is      102.7 secs

     total energy              =    -559.07894409 Ry
     estimated scf accuracy    <          2.6E-12 Ry

     iteration # 11     ecut=   100.00 Ry     beta= 0.70
     Davidson diagonalization with overlap

---- Real-time Memory Report at c_bands before calling an iterative solver
           349 MiB given to the printing process from OS
           233 MiB allocation reported by mallinfo(arena+hblkhd)
        308168 MiB available memory on the node where the printing process lives
------------------
     ethr =  1.00E-13,  avg # of iterations =  1.1

     total cpu time spent up to now is      103.5 secs

     End of self-consistent calculation

          k = 0.0000 0.0000 0.0000 (160347 PWs)   bands (ev):

   -57.8237 -57.7480 -57.7480 -34.1730 -34.0119 -34.0115 -34.0115 -33.9165
   -33.9165 -33.7012 -33.5478 -33.5478 -18.9563 -18.4403 -17.8685 -17.8510
   -17.8510 -17.6479 -17.2916 -17.2916  -8.4760  -8.4760  -8.1459  -7.9360
    -7.5784  -7.5784  -7.3521  -7.2880  -6.8516  -6.8516  -6.1979  -5.9892
    -5.9892  -5.7733  -5.7011  -5.7011  -5.3460  -5.3460  -5.3058  -5.1940
    -4.5760  -4.5760  -3.9139  -3.9139  -3.5718  -2.9969  -2.9969  -1.9337
    -1.0575  -1.0575  -0.4199  -0.2376  -0.2376   0.1731   0.2132   0.2132
     0.4212   0.4212

     occupation numbers 
     1.0000   1.0000   1.0000   1.0000   1.0000   1.0000   1.0000   1.0000
     1.0000   1.0000   1.0000   1.0000   1.0000   1.0000   1.0000   1.0000
     1.0000   1.0000   1.0000   1.0000   1.0000   1.0000   1.0000   1.0000
     1.0000   1.0000   1.0000   1.0000   1.0000   1.0000   1.0000   1.0000
     1.0000   1.0000   1.0000   1.0000   1.0000   1.0000   1.0000   1.0000
     1.0000   1.0000   1.0000   1.0000   1.0000   1.0000   1.0000   0.2211
     0.0000   0.0000   0.0000   0.0000   0.0000   0.0000   0.0000   0.0000
     0.0000   0.0000

          k =-0.0962 0.1667 0.0000 (160353 PWs)   bands (ev):

   -57.8236 -57.7481 -57.7480 -34.1700 -34.0111 -34.0107 -34.0092 -33.9174
   -33.9166 -33.7028 -33.5519 -33.5486 -18.9400 -18.4121 -17.9053 -17.8604
   -17.8508 -17.6345 -17.3185 -17.2926  -8.3828  -8.3817  -8.0201  -7.9133
    -7.5659  -7.5301  -7.2830  -7.2001  -6.8750  -6.8639  -6.1913  -6.1601
    -5.9912  -5.9619  -5.7818  -5.5994  -5.4607  -5.4497  -5.2766  -5.1365
    -4.7495  -4.5867  -4.1897  -3.9667  -3.6332  -3.0083  -2.9764  -1.9313
    -1.0426  -1.0424  -0.4295  -0.2856  -0.2585  -0.0079   0.0767   0.1795
     0.4366   0.6071

     occupation numbers 
     1.0000   1.0000   1.0000   1.0000   1.0000   1.0000   1.0000   1.0000
     1.0000   1.0000   1.0000   1.0000   1.0000   1.0000   1.0000   1.0000
     1.0000   1.0000   1.0000   1.0000   1.0000   1.0000   1.0000   1.0000
     1.0000   1.0000   1.0000   1.0000   1.0000   1.0000   1.0000   1.0000
     1.0000   1.0000   1.0000   1.0000   1.0000   1.0000   1.0000   1.0000
     1.0000   1.0000   1.0000   1.0000   1.0000   1.0000   1.0000   0.1987
     0.0000   0.0000   0.0000   0.0000   0.0000   0.0000   0.0000   0.0000
     0.0000   0.0000

          k =-0.1925 0.3333 0.0000 (160313 PWs)   bands (ev):

   -57.8233 -57.7484 -57.7480 -34.1641 -34.0099 -34.0087 -34.0046 -33.9193
   -33.9167 -33.7061 -33.5602 -33.5502 -18.9077 -18.3256 -18.0226 -17.8653
   -17.8506 -17.6020 -17.3775 -17.2946  -8.1648  -8.1578  -7.9326  -7.6383
    -7.5029  -7.3271  -7.1827  -7.0485  -6.9421  -6.9180  -6.4281  -6.2716
    -6.2367  -6.0161  -5.9166  -5.7277  -5.6191  -5.5757  -5.2280  -5.1751
    -4.9526  -4.6638  -4.6500  -4.0637  -3.7420  -3.0431  -2.9372  -1.9737
    -1.0156  -0.9891  -0.5319  -0.3701  -0.3225  -0.1657   0.0431   0.1342
     0.3319   0.6381

     occupation numbers 
     1.0000   1.0000   1.0000   1.0000   1.0000   1.0000   1.0000   1.0000
     1.0000   1.0000   1.0000   1.0000   1.0000   1.0000   1.0000   1.0000
     1.0000   1.0000   1.0000   1.0000   1.0000   1.0000   1.0000   1.0000
     1.0000   1.0000   1.0000   1.0000   1.0000   1.0000   1.0000   1.0000
     1.0000   1.0000   1.0000   1.0000   1.0000   1.0000   1.0000   1.0000
     1.0000   1.0000   1.0000   1.0000   1.0000   1.0000   1.0000   0.7662
     0.0000   0.0000   0.0000   0.0000   0.0000   0.0000   0.0000   0.0000
     0.0000   0.0000

          k = 0.2887-0.5000 0.0000 (160226 PWs)   bands (ev):

   -57.8232 -57.7485 -57.7480 -34.1612 -34.0093 -34.0077 -34.0022 -33.9202
   -33.9168 -33.7078 -33.5644 -33.5510 -18.8919 -18.2140 -18.1501 -17.8674
   -17.8505 -17.5792 -17.4130 -17.2955  -8.0605  -8.0380  -7.7984  -7.5354
    -7.3901  -7.2746  -7.0795  -7.0653  -6.9866  -6.7195  -6.6083  -6.4317
    -6.4021  -6.0094  -6.0055  -5.9129  -5.7463  -5.6301  -5.2305  -5.1026
    -4.9996  -4.8702  -4.7097  -4.1056  -3.7895  -3.0669  -2.9204  -2.0106
    -0.9992  -0.9497  -0.6023  -0.3975  -0.3724  -0.2172   0.0555   0.1263
     0.2676   0.6255

     occupation numbers 
     1.0000   1.0000   1.0000   1.0000   1.0000   1.0000   1.0000   1.0000
     1.0000   1.0000   1.0000   1.0000   1.0000   1.0000   1.0000   1.0000
     1.0000   1.0000   1.0000   1.0000   1.0000   1.0000   1.0000   1.0000
     1.0000   1.0000   1.0000   1.0000   1.0000   1.0000   1.0000   1.0000
     1.0000   1.0000   1.0000   1.0000   1.0000   1.0000   1.0000   1.0000
     1.0000   1.0000   1.0000   1.0000   1.0000   1.0000   1.0000   1.0744
     0.0000   0.0000   0.0000   0.0000   0.0000   0.0000   0.0000   0.0000
     0.0000   0.0000

          k =-0.0000 0.3333 0.0000 (160321 PWs)   bands (ev):

   -57.8234 -57.7483 -57.7480 -34.1656 -34.0098 -34.0094 -34.0061 -33.9186
   -33.9168 -33.7052 -33.5577 -33.5503 -18.9158 -18.3543 -17.9567 -17.9247
   -17.8190 -17.6109 -17.3669 -17.2896  -8.2276  -8.2204  -7.9177  -7.7576
    -7.5370  -7.3733  -7.2169  -7.0522  -6.9460  -6.8840  -6.3819  -6.2574
    -6.1231  -6.0423  -5.9456  -5.6436  -5.5004  -5.4686  -5.3479  -5.0925
    -4.9547  -4.7256  -4.4489  -4.1118  -3.6910  -3.0378  -2.9432  -1.9432
    -1.0860  -0.9492  -0.4624  -0.3740  -0.2947  -0.1273  -0.0094   0.1360
     0.3983   0.7232

     occupation numbers 
     1.0000   1.0000   1.0000   1.0000   1.0000   1.0000   1.0000   1.0000
     1.0000   1.0000   1.0000   1.0000   1.0000   1.0000   1.0000   1.0000
     1.0000   1.0000   1.0000   1.0000   1.0000   1.0000   1.0000   1.0000
     1.0000   1.0000   1.0000   1.0000   1.0000   1.0000   1.0000   1.0000
     1.0000   1.0000   1.0000   1.0000   1.0000   1.0000   1.0000   1.0000
     1.0000   1.0000   1.0000   1.0000   1.0000   1.0000   1.0000   0.3274
     0.0000   0.0000   0.0000   0.0000   0.0000   0.0000   0.0000   0.0000
     0.0000   0.0000

          k =-0.0962 0.5000 0.0000 (160239 PWs)   bands (ev):

   -57.8232 -57.7485 -57.7480 -34.1611 -34.0084 -34.0076 -34.0034 -33.9197
   -33.9173 -33.7077 -33.5633 -33.5522 -18.8922 -18.2430 -18.0805 -17.9589
   -17.7978 -17.5757 -17.4284 -17.2850  -8.1023  -7.9819  -7.7828  -7.5754
    -7.4518  -7.2010  -7.0876  -7.0254  -6.9530  -6.8218  -6.6252  -6.4545
    -6.3050  -6.1108  -6.0827  -5.8247  -5.6798  -5.4608  -5.2703  -5.2391
    -4.9833  -4.8449  -4.6801  -4.2487  -3.7263  -3.0657  -2.9367  -1.9590
    -1.1102  -0.8630  -0.5250  -0.3894  -0.3672  -0.2466  -0.0731   0.1365
     0.3802   0.6830

     occupation numbers 
     1.0000   1.0000   1.0000   1.0000   1.0000   1.0000   1.0000   1.0000
     1.0000   1.0000   1.0000   1.0000   1.0000   1.0000   1.0000   1.0000
     1.0000   1.0000   1.0000   1.0000   1.0000   1.0000   1.0000   1.0000
     1.0000   1.0000   1.0000   1.0000   1.0000   1.0000   1.0000   1.0000
     1.0000   1.0000   1.0000   1.0000   1.0000   1.0000   1.0000   1.0000
     1.0000   1.0000   1.0000   1.0000   1.0000   1.0000   1.0000   0.5487
     0.0000   0.0000   0.0000   0.0000   0.0000   0.0000   0.0000   0.0000
     0.0000   0.0000

          k =-0.0000 0.6667 0.0000 (160113 PWs)   bands (ev):

   -57.8231 -57.7486 -57.7480 -34.1595 -34.0075 -34.0057 -34.0044 -33.9192
   -33.9182 -33.7084 -33.5640 -33.5540 -18.8848 -18.1578 -18.0957 -18.0585
   -17.7753 -17.5484 -17.4724 -17.2765  -8.0856  -7.7632  -7.7512  -7.6114
    -7.3972  -7.1802  -7.0843  -7.0399  -6.7916  -6.7410  -6.7197  -6.5015
    -6.3563  -6.2849  -6.2653  -5.7497  -5.6774  -5.4692  -5.3768  -5.2674
    -4.9209  -4.8294  -4.7412  -4.4301  -3.6989  -3.0639  -2.9683  -1.9194
    -1.1672  -0.8020  -0.4525  -0.3801  -0.3497  -0.3387  -0.2453   0.1912
     0.5453   0.5662

     occupation numbers 
     1.0000   1.0000   1.0000   1.0000   1.0000   1.0000   1.0000   1.0000
     1.0000   1.0000   1.0000   1.0000   1.0000   1.0000   1.0000   1.0000
     1.0000   1.0000   1.0000   1.0000   1.0000   1.0000   1.0000   1.0000
     1.0000   1.0000   1.0000   1.0000   1.0000   1.0000   1.0000   1.0000
     1.0000   1.0000   1.0000   1.0000   1.0000   1.0000   1.0000   1.0000
     1.0000   1.0000   1.0000   1.0000   1.0000   1.0000   1.0000   0.1085
     0.0000   0.0000   0.0000   0.0000   0.0000   0.0000   0.0000   0.0000
     0.0000   0.0000

     the Fermi energy is    -1.9488 ev

!    total energy              =    -559.07894409 Ry
     estimated scf accuracy    <          6.6E-13 Ry
     smearing contrib. (-TS)   =      -0.00082436 Ry
     internal energy E=F+TS    =    -559.07811973 Ry

     convergence has been achieved in  11 iterations

     Forces acting on atoms (cartesian axes, Ry/au):

     atom    1 type  1   force =     0.00297561    0.00000000   -0.00488325
     atom    2 type  1   force =    -0.00148781    0.00257695   -0.00488325
     atom    3 type  1   force =    -0.00148781   -0.00257695   -0.00488325
     atom    4 type  2   force =     0.00000000   -0.00000000   -0.00110569
     atom    5 type  2   force =     0.00065657    0.00000000    0.00107860
     atom    6 type  2   force =    -0.00032828    0.00056860    0.00107860
     atom    7 type  2   force =    -0.00032828   -0.00056860    0.00107860
     atom    8 type  2   force =     0.00000000    0.00000000   -0.00027547
     atom    9 type  2   force =    -0.00022306    0.00000000    0.00426503
     atom   10 type  2   force =     0.00011153   -0.00019317    0.00426503
     atom   11 type  2   force =     0.00011153    0.00019317    0.00426503
     The non-local contrib.  to forces
     atom    1 type  1   force =    -0.20456470   -0.00000000   -0.03593999
     atom    2 type  1   force =     0.10228235   -0.17715823   -0.03593999
     atom    3 type  1   force =     0.10228235    0.17715823   -0.03593999
     atom    4 type  2   force =    -0.00000000   -0.00000000    0.23123965
     atom    5 type  2   force =    -0.08657003   -0.00000000    0.13863168
     atom    6 type  2   force =     0.04328502   -0.07497185    0.13863168
     atom    7 type  2   force =     0.04328502    0.07497185    0.13863168
     atom    8 type  2   force =    -0.00000000   -0.00000000   -0.15817101
     atom    9 type  2   force =     0.11059980   -0.00000000   -0.15824499
     atom   10 type  2   force =    -0.05529990    0.09578223   -0.15824499
     atom   11 type  2   force =    -0.05529990   -0.09578223   -0.15824499
     The ionic contribution  to forces
     atom    1 type  1   force =     9.55315004    0.00000000   -0.96062136
     atom    2 type  1   force =    -4.77657502    8.27327062   -0.96062136
     atom    3 type  1   force =    -4.77657502   -8.27327062   -0.96062136
     atom    4 type  2   force =     0.00000000    0.00000000  -39.04606740
     atom    5 type  2   force =     2.91164268   -0.00000000  -26.69686423
     atom    6 type  2   force =    -1.45582134    2.52155653  -26.69686423
     atom    7 type  2   force =    -1.45582134   -2.52155653  -26.69686423
     atom    8 type  2   force =     0.00000000   -0.00000000   26.57385039
     atom    9 type  2   force =    -5.82054099   -0.00000000   31.81489126
     atom   10 type  2   force =     2.91027050   -5.04073636   31.81489127
     atom   11 type  2   force =     2.91027050    5.04073636   31.81489127
     The local contribution  to forces
     atom    1 type  1   force =    -9.34399254   -0.00000000    0.99162569
     atom    2 type  1   force =     4.67199621   -8.09213488    0.99162569
     atom    3 type  1   force =     4.67199621    8.09213488    0.99162569
     atom    4 type  2   force =     0.00000000    0.00000000   38.81265077
     atom    5 type  2   force =    -2.82519449   -0.00000000   26.55825161
     atom    6 type  2   force =     1.41259724   -2.44669020   26.55825161
     atom    7 type  2   force =     1.41259724    2.44669020   26.55825161
     atom    8 type  2   force =     0.00000000   -0.00000000  -26.41656023
     atom    9 type  2   force =     5.71027787    0.00000000  -31.65069620
     atom   10 type  2   force =    -2.85513893    4.94524569  -31.65069620
     atom   11 type  2   force =    -2.85513893   -4.94524569  -31.65069620
     The core correction contribution to forces
     atom    1 type  1   force =     0.00000000    0.00000000    0.00000000
     atom    2 type  1   force =     0.00000000    0.00000000    0.00000000
     atom    3 type  1   force =     0.00000000    0.00000000    0.00000000
     atom    4 type  2   force =     0.00000000    0.00000000    0.00000000
     atom    5 type  2   force =     0.00000000    0.00000000    0.00000000
     atom    6 type  2   force =     0.00000000    0.00000000    0.00000000
     atom    7 type  2   force =     0.00000000    0.00000000    0.00000000
     atom    8 type  2   force =     0.00000000    0.00000000    0.00000000
     atom    9 type  2   force =     0.00000000    0.00000000    0.00000000
     atom   10 type  2   force =     0.00000000    0.00000000    0.00000000
     atom   11 type  2   force =     0.00000000    0.00000000    0.00000000
     The Hubbard contrib.    to forces
     atom    1 type  1   force =     0.00000000    0.00000000    0.00000000
     atom    2 type  1   force =     0.00000000    0.00000000    0.00000000
     atom    3 type  1   force =     0.00000000    0.00000000    0.00000000
     atom    4 type  2   force =     0.00000000    0.00000000    0.00000000
     atom    5 type  2   force =     0.00000000    0.00000000    0.00000000
     atom    6 type  2   force =     0.00000000    0.00000000    0.00000000
     atom    7 type  2   force =     0.00000000    0.00000000    0.00000000
     atom    8 type  2   force =     0.00000000    0.00000000    0.00000000
     atom    9 type  2   force =     0.00000000    0.00000000    0.00000000
     atom   10 type  2   force =     0.00000000    0.00000000    0.00000000
     atom   11 type  2   force =     0.00000000    0.00000000    0.00000000
     The SCF correction term to forces
     atom    1 type  1   force =     0.00000005   -0.00000000   -0.00000184
     atom    2 type  1   force =    -0.00000002    0.00000004   -0.00000184
     atom    3 type  1   force =    -0.00000002   -0.00000004   -0.00000184
     atom    4 type  2   force =     0.00000000    0.00000000   -0.00000053
     atom    5 type  2   force =    -0.00000002    0.00000000   -0.00000073
     atom    6 type  2   force =     0.00000001   -0.00000002   -0.00000073
     atom    7 type  2   force =     0.00000001    0.00000002   -0.00000073
     atom    8 type  2   force =    -0.00000000   -0.00000000   -0.00000090
     atom    9 type  2   force =     0.00000005   -0.00000000   -0.00000079
     atom   10 type  2   force =    -0.00000003    0.00000004   -0.00000079
     atom   11 type  2   force =    -0.00000003   -0.00000004   -0.00000079

     DFT-D3 dispersion contribution to forces:
     atom    1 type  1   force =    -0.00161728   -0.00000000    0.00005707
     atom    2 type  1   force =     0.00080864   -0.00140060    0.00005707
     atom    3 type  1   force =     0.00080864    0.00140060    0.00005707
     atom    4 type  2   force =     0.00000000    0.00000000    0.00107465
     atom    5 type  2   force =     0.00077843   -0.00000000    0.00106309
     atom    6 type  2   force =    -0.00038922    0.00067414    0.00106309
     atom    7 type  2   force =    -0.00038922   -0.00067414    0.00106309
     atom    8 type  2   force =    -0.00000000   -0.00000000    0.00060912
     atom    9 type  2   force =    -0.00055978    0.00000000   -0.00168142
     atom   10 type  2   force =     0.00027989   -0.00048478   -0.00168142
     atom   11 type  2   force =     0.00027989    0.00048478   -0.00168142

     Total force =     0.012606     Total SCF correction =     0.000004

     DFT-D3 dispersion Force =     0.004900


     Computing stress (Cartesian axis) and pressure

          total   stress  (Ry/bohr**3)                   (kbar)     P=        0.84
   0.00000676   0.00000000   0.00000000            0.99        0.00        0.00
   0.00000000   0.00000676   0.00000000            0.00        0.99        0.00
   0.00000000   0.00000000   0.00000363            0.00        0.00        0.53

     kinetic stress (kbar)   1817.59      0.00     -0.00
                                0.00   1817.59     -0.00
                                0.00      0.00   1796.24

     local   stress (kbar) -84883.45     -0.00     -0.00
                               -0.00 -84883.45      0.00
                               -0.00      0.00  83357.67

     nonloc. stress (kbar)    965.40     -0.00      0.00
                               -0.00    965.40      0.00
                                0.00      0.00    969.68

     hartree stress (kbar)  42066.88      0.00     -0.00
                                0.00  42066.88      0.00
                               -0.00      0.00 -40858.40

     exc-cor stress (kbar)   -400.65     -0.00      0.00
                               -0.00   -400.65      0.00
                                0.00      0.00   -401.76

     corecor stress (kbar)      0.00      0.00      0.00
                                0.00      0.00      0.00
                                0.00      0.00      0.00

     ewald   stress (kbar)  40436.92     -0.00      0.00
                               -0.00  40436.92      0.00
                                0.00      0.00 -44862.47

     hubbard stress (kbar)      0.00      0.00      0.00
                                0.00      0.00      0.00
                                0.00      0.00      0.00

     DFT-D   stress (kbar)     -1.68      0.00     -0.00
                                0.00     -1.68     -0.00
                               -0.00     -0.00     -0.43

     XDM     stress (kbar)      0.00      0.00      0.00
                                0.00      0.00      0.00
                                0.00      0.00      0.00

     dft-nl  stress (kbar)      0.00      0.00      0.00
                                0.00      0.00      0.00
                                0.00      0.00      0.00

     TS-vdW  stress (kbar)      0.00      0.00      0.00
                                0.00      0.00      0.00
                                0.00      0.00      0.00

     MDB     stress (kbar)      0.00      0.00      0.00
                                0.00      0.00      0.00
                                0.00      0.00      0.00

     3D-RISM stress (kbar)      0.00      0.00      0.00
                                0.00      0.00      0.00
                                0.00      0.00      0.00


     Entering Dynamics:    iteration =     2

     <vel(dt)|acc(dt)> =   0.98450519

ATOMIC_POSITIONS (crystal)
Nb               0.1353402509       -0.1353402509       -0.1019977090
Nb               0.1353402509        0.2706805016       -0.1019977090
Nb              -0.2706805016       -0.1353402509       -0.1019977090
Br               0.0000000000       -0.0000000000       -0.1634379506
Br              -0.4977238487        0.4977238487       -0.1466698910
Br              -0.4977238487        0.0045523025       -0.1466698910
Br              -0.0045523025        0.4977238487       -0.1466698910
Br               0.3333333333       -0.3333333333       -0.0577679068
Br              -0.1664342249        0.1664342249       -0.0474520737
Br              -0.1664342249       -0.3328684496       -0.0474520737
Br               0.3328684496        0.1664342249       -0.0474520737



     Writing config-only to output data dir ./out/Nb3Br8.save/ :
     XML data file

     first order wave-functions extrapolation
     NEW-OLD atomic charge density approx. for the potential

     negative rho (up, down):  1.148E-04 0.000E+00

     total cpu time spent up to now is      168.7 secs

     per-process dynamical memory:   209.3 Mb

     Self-consistent Calculation

     iteration #  1     ecut=   100.00 Ry     beta= 0.70
     Davidson diagonalization with overlap

---- Real-time Memory Report at c_bands before calling an iterative solver
           349 MiB given to the printing process from OS
           204 MiB allocation reported by mallinfo(arena+hblkhd)
        308064 MiB available memory on the node where the printing process lives
------------------
     ethr =  1.00E-06,  avg # of iterations =  5.1

     Threshold (ethr) on eigenvalues was too large:
     Diagonalizing with lowered threshold

     Davidson diagonalization with overlap

---- Real-time Memory Report at c_bands before calling an iterative solver
           349 MiB given to the printing process from OS
           208 MiB allocation reported by mallinfo(arena+hblkhd)
        308016 MiB available memory on the node where the printing process lives
------------------
     ethr =  8.01E-08,  avg # of iterations =  8.1

     negative rho (up, down):  3.180E-05 0.000E+00

     total cpu time spent up to now is      172.1 secs

     total energy              =    -559.07906386 Ry
     estimated scf accuracy    <       0.00007677 Ry

     iteration #  2     ecut=   100.00 Ry     beta= 0.70
     Davidson diagonalization with overlap

---- Real-time Memory Report at c_bands before calling an iterative solver
           349 MiB given to the printing process from OS
           208 MiB allocation reported by mallinfo(arena+hblkhd)
        308004 MiB available memory on the node where the printing process lives
------------------
     ethr =  8.08E-08,  avg # of iterations =  9.7

     negative rho (up, down):  2.551E-05 0.000E+00

     total cpu time spent up to now is      173.7 secs

     total energy              =    -559.07903251 Ry
     estimated scf accuracy    <       0.00051107 Ry

     iteration #  3     ecut=   100.00 Ry     beta= 0.70
     Davidson diagonalization with overlap

---- Real-time Memory Report at c_bands before calling an iterative solver
           349 MiB given to the printing process from OS
           220 MiB allocation reported by mallinfo(arena+hblkhd)
        307783 MiB available memory on the node where the printing process lives
------------------
     ethr =  8.08E-08,  avg # of iterations =  6.6

     negative rho (up, down):  1.262E-05 0.000E+00

     total cpu time spent up to now is      174.9 secs

     total energy              =    -559.07910866 Ry
     estimated scf accuracy    <       0.00000390 Ry

     iteration #  4     ecut=   100.00 Ry     beta= 0.70
     Davidson diagonalization with overlap

---- Real-time Memory Report at c_bands before calling an iterative solver
           349 MiB given to the printing process from OS
           222 MiB allocation reported by mallinfo(arena+hblkhd)
        307751 MiB available memory on the node where the printing process lives
------------------
     ethr =  4.11E-09,  avg # of iterations = 15.6

     negative rho (up, down):  3.835E-06 0.000E+00

     total cpu time spent up to now is      176.9 secs

     total energy              =    -559.07911095 Ry
     estimated scf accuracy    <       0.00000085 Ry

     iteration #  5     ecut=   100.00 Ry     beta= 0.70
     Davidson diagonalization with overlap

---- Real-time Memory Report at c_bands before calling an iterative solver
           349 MiB given to the printing process from OS
           224 MiB allocation reported by mallinfo(arena+hblkhd)
        307718 MiB available memory on the node where the printing process lives
------------------
     ethr =  8.95E-10,  avg # of iterations = 11.6

     negative rho (up, down):  1.728E-06 0.000E+00

     total cpu time spent up to now is      178.4 secs

     total energy              =    -559.07911106 Ry
     estimated scf accuracy    <       0.00000083 Ry

     iteration #  6     ecut=   100.00 Ry     beta= 0.70
     Davidson diagonalization with overlap

---- Real-time Memory Report at c_bands before calling an iterative solver
           349 MiB given to the printing process from OS
           225 MiB allocation reported by mallinfo(arena+hblkhd)
        307686 MiB available memory on the node where the printing process lives
------------------
     ethr =  8.76E-10,  avg # of iterations =  2.9

     negative rho (up, down):  4.124E-07 0.000E+00

     total cpu time spent up to now is      179.4 secs

     total energy              =    -559.07911120 Ry
     estimated scf accuracy    <       0.00000002 Ry

     iteration #  7     ecut=   100.00 Ry     beta= 0.70
     Davidson diagonalization with overlap

---- Real-time Memory Report at c_bands before calling an iterative solver
           349 MiB given to the printing process from OS
           227 MiB allocation reported by mallinfo(arena+hblkhd)
        307656 MiB available memory on the node where the printing process lives
------------------
     ethr =  2.30E-11,  avg # of iterations = 11.9

     negative rho (up, down):  1.989E-08 0.000E+00

     total cpu time spent up to now is      181.7 secs

     total energy              =    -559.07911122 Ry
     estimated scf accuracy    <          4.9E-09 Ry

     iteration #  8     ecut=   100.00 Ry     beta= 0.70
     Davidson diagonalization with overlap

---- Real-time Memory Report at c_bands before calling an iterative solver
           349 MiB given to the printing process from OS
           229 MiB allocation reported by mallinfo(arena+hblkhd)
        307620 MiB available memory on the node where the printing process lives
------------------
     ethr =  5.15E-12,  avg # of iterations = 10.9

     total cpu time spent up to now is      183.4 secs

     total energy              =    -559.07911123 Ry
     estimated scf accuracy    <          1.0E-09 Ry

     iteration #  9     ecut=   100.00 Ry     beta= 0.70
     Davidson diagonalization with overlap

---- Real-time Memory Report at c_bands before calling an iterative solver
           349 MiB given to the printing process from OS
           230 MiB allocation reported by mallinfo(arena+hblkhd)
        307584 MiB available memory on the node where the printing process lives
------------------
     ethr =  1.08E-12,  avg # of iterations =  5.9

     total cpu time spent up to now is      185.2 secs

     total energy              =    -559.07911123 Ry
     estimated scf accuracy    <          1.1E-10 Ry

     iteration # 10     ecut=   100.00 Ry     beta= 0.70
     Davidson diagonalization with overlap

---- Real-time Memory Report at c_bands before calling an iterative solver
           349 MiB given to the printing process from OS
           232 MiB allocation reported by mallinfo(arena+hblkhd)
        307526 MiB available memory on the node where the printing process lives
------------------
     ethr =  1.13E-13,  avg # of iterations = 12.4

     total cpu time spent up to now is      187.5 secs

     total energy              =    -559.07911123 Ry
     estimated scf accuracy    <          1.7E-11 Ry

     iteration # 11     ecut=   100.00 Ry     beta= 0.70
     Davidson diagonalization with overlap

---- Real-time Memory Report at c_bands before calling an iterative solver
           349 MiB given to the printing process from OS
           233 MiB allocation reported by mallinfo(arena+hblkhd)
        307501 MiB available memory on the node where the printing process lives
------------------
     ethr =  1.00E-13,  avg # of iterations =  2.3

     total cpu time spent up to now is      188.8 secs

[...]
     1.0000   1.0000   1.0000   1.0000   1.0000   1.0000   1.0000   1.0000
     1.0000   1.0000   1.0000   1.0000   1.0000   1.0000   1.0000   1.0000
     1.0000   1.0000   1.0000   1.0000   1.0000   1.0000   1.0000   1.0000
     1.0000   1.0000   1.0000   1.0000   1.0000   1.0000   1.0000   1.0000
     1.0000   1.0000   1.0000   1.0000   1.0000   1.0000   1.0000   0.7665
     0.0000   0.0000   0.0000   0.0000   0.0000   0.0000   0.0000   0.0000
     0.0000   0.0000

          k = 0.2887-0.5000 0.0000 (160226 PWs)   bands (ev):

   -57.8274 -57.7540 -57.7535 -34.1618 -34.0107 -34.0079 -34.0012 -33.9245
   -33.9209 -33.7104 -33.5717 -33.5581 -18.8885 -18.2034 -18.1133 -17.8428
   -17.8094 -17.6066 -17.4361 -17.3230  -8.0579  -8.0317  -7.7810  -7.5319
    -7.3780  -7.2548  -7.0702  -7.0581  -6.9799  -6.7171  -6.5983  -6.4135
    -6.3744  -6.0037  -6.0003  -5.9207  -5.7542  -5.6378  -5.2290  -5.0952
    -5.0204  -4.8665  -4.6750  -4.1326  -3.7834  -3.0638  -2.9109  -2.0277
    -1.0021  -0.9413  -0.6049  -0.4025  -0.3946  -0.2240   0.0505   0.1180
     0.2536   0.6274

     occupation numbers 
     1.0000   1.0000   1.0000   1.0000   1.0000   1.0000   1.0000   1.0000
     1.0000   1.0000   1.0000   1.0000   1.0000   1.0000   1.0000   1.0000
     1.0000   1.0000   1.0000   1.0000   1.0000   1.0000   1.0000   1.0000
     1.0000   1.0000   1.0000   1.0000   1.0000   1.0000   1.0000   1.0000
     1.0000   1.0000   1.0000   1.0000   1.0000   1.0000   1.0000   1.0000
     1.0000   1.0000   1.0000   1.0000   1.0000   1.0000   1.0000   1.0819
     0.0000   0.0000   0.0000   0.0000   0.0000   0.0000   0.0000   0.0000
     0.0000   0.0000

          k =-0.0000 0.3333 0.0000 (160321 PWs)   bands (ev):

   -57.8276 -57.7538 -57.7535 -34.1663 -34.0121 -34.0088 -34.0051 -33.9229
   -33.9210 -33.7078 -33.5648 -33.5574 -18.9124 -18.3332 -17.9403 -17.8835
   -17.7851 -17.6362 -17.3923 -17.3167  -8.2244  -8.2144  -7.9114  -7.7320
    -7.5245  -7.3644  -7.2117  -7.0384  -6.9260  -6.8701  -6.3880  -6.2555
    -6.1240  -6.0428  -5.9508  -5.6355  -5.4997  -5.4592  -5.3394  -5.0875
    -4.9477  -4.7175  -4.4466  -4.1362  -3.6857  -3.0317  -2.9337  -1.9521
    -1.0875  -0.9473  -0.4659  -0.3872  -0.3078  -0.1425  -0.0144   0.1274
     0.3922   0.7138

     occupation numbers 
     1.0000   1.0000   1.0000   1.0000   1.0000   1.0000   1.0000   1.0000
     1.0000   1.0000   1.0000   1.0000   1.0000   1.0000   1.0000   1.0000
     1.0000   1.0000   1.0000   1.0000   1.0000   1.0000   1.0000   1.0000
     1.0000   1.0000   1.0000   1.0000   1.0000   1.0000   1.0000   1.0000
     1.0000   1.0000   1.0000   1.0000   1.0000   1.0000   1.0000   1.0000
     1.0000   1.0000   1.0000   1.0000   1.0000   1.0000   1.0000   0.2917
     0.0000   0.0000   0.0000   0.0000   0.0000   0.0000   0.0000   0.0000
     0.0000   0.0000

          k =-0.0962 0.5000 0.0000 (160239 PWs)   bands (ev):

   -57.8274 -57.7540 -57.7535 -34.1617 -34.0106 -34.0071 -34.0023 -33.9239
   -33.9214 -33.7103 -33.5705 -33.5593 -18.8888 -18.2260 -18.0531 -17.9231
   -17.7649 -17.6041 -17.4509 -17.3123  -8.0985  -7.9777  -7.7731  -7.5613
    -7.4304  -7.2001  -7.0745  -7.0059  -6.9458  -6.8112  -6.6172  -6.4432
    -6.3117  -6.1070  -6.0783  -5.8095  -5.6774  -5.4667  -5.2691  -5.2362
    -4.9952  -4.8436  -4.6533  -4.2713  -3.7245  -3.0622  -2.9279  -1.9753
    -1.1107  -0.8580  -0.5316  -0.4017  -0.3788  -0.2555  -0.0797   0.1310
     0.3748   0.6821

     occupation numbers 
     1.0000   1.0000   1.0000   1.0000   1.0000   1.0000   1.0000   1.0000
     1.0000   1.0000   1.0000   1.0000   1.0000   1.0000   1.0000   1.0000
     1.0000   1.0000   1.0000   1.0000   1.0000   1.0000   1.0000   1.0000
     1.0000   1.0000   1.0000   1.0000   1.0000   1.0000   1.0000   1.0000
     1.0000   1.0000   1.0000   1.0000   1.0000   1.0000   1.0000   1.0000
     1.0000   1.0000   1.0000   1.0000   1.0000   1.0000   1.0000   0.6144
     0.0000   0.0000   0.0000   0.0000   0.0000   0.0000   0.0000   0.0000
     0.0000   0.0000

          k =-0.0000 0.6667 0.0000 (160113 PWs)   bands (ev):

   -57.8274 -57.7541 -57.7535 -34.1601 -34.0100 -34.0049 -34.0033 -33.9233
   -33.9225 -33.7110 -33.5712 -33.5612 -18.8813 -18.1541 -18.0671 -18.0095
   -17.7431 -17.5818 -17.4901 -17.3037  -8.0815  -7.7641  -7.7387  -7.6083
    -7.3646  -7.1543  -7.0815  -7.0435  -6.7787  -6.7155  -6.7111  -6.4850
    -6.3692  -6.2804  -6.2785  -5.7231  -5.6553  -5.4837  -5.3897  -5.2727
    -4.9220  -4.8347  -4.7054  -4.4566  -3.6991  -3.0604  -2.9609  -1.9372
    -1.1682  -0.7964  -0.4739  -0.3818  -0.3665  -0.3396  -0.2474   0.1843
     0.5426   0.5725

     occupation numbers 
     1.0000   1.0000   1.0000   1.0000   1.0000   1.0000   1.0000   1.0000
     1.0000   1.0000   1.0000   1.0000   1.0000   1.0000   1.0000   1.0000
     1.0000   1.0000   1.0000   1.0000   1.0000   1.0000   1.0000   1.0000
     1.0000   1.0000   1.0000   1.0000   1.0000   1.0000   1.0000   1.0000
     1.0000   1.0000   1.0000   1.0000   1.0000   1.0000   1.0000   1.0000
     1.0000   1.0000   1.0000   1.0000   1.0000   1.0000   1.0000   0.1477
     0.0000   0.0000   0.0000   0.0000   0.0000   0.0000   0.0000   0.0000
     0.0000   0.0000

     the Fermi energy is    -1.9607 ev

!    total energy              =    -559.07923810 Ry
     estimated scf accuracy    <          9.7E-13 Ry
     smearing contrib. (-TS)   =      -0.00071690 Ry
     internal energy E=F+TS    =    -559.07852120 Ry

     convergence has been achieved in   3 iterations

     Forces acting on atoms (cartesian axes, Ry/au):

     atom    1 type  1   force =    -0.00000008   -0.00000000   -0.00000021
     atom    2 type  1   force =     0.00000004   -0.00000007   -0.00000021
     atom    3 type  1   force =     0.00000004    0.00000007   -0.00000021
     atom    4 type  2   force =     0.00000000    0.00000000   -0.00000026
     atom    5 type  2   force =     0.00000083   -0.00000000    0.00000056
     atom    6 type  2   force =    -0.00000042    0.00000072    0.00000056
     atom    7 type  2   force =    -0.00000042   -0.00000072    0.00000056
     atom    8 type  2   force =    -0.00000000    0.00000000    0.00000074
     atom    9 type  2   force =    -0.00000027   -0.00000000   -0.00000051
     atom   10 type  2   force =     0.00000014   -0.00000024   -0.00000051
     atom   11 type  2   force =     0.00000014    0.00000024   -0.00000051
     The non-local contrib.  to forces
     atom    1 type  1   force =    -0.20538939   -0.00000000   -0.03707242
     atom    2 type  1   force =     0.10269470   -0.17787243   -0.03707242
     atom    3 type  1   force =     0.10269470    0.17787243   -0.03707242
     atom    4 type  2   force =     0.00000000    0.00000000    0.23114605
     atom    5 type  2   force =    -0.08890524   -0.00000000    0.13738197
     atom    6 type  2   force =     0.04445262   -0.07699419    0.13738197
     atom    7 type  2   force =     0.04445262    0.07699419    0.13738197
     atom    8 type  2   force =     0.00000000    0.00000000   -0.15905285
     atom    9 type  2   force =     0.10790584    0.00000000   -0.16028362
     atom   10 type  2   force =    -0.05395292    0.09344920   -0.16028362
     atom   11 type  2   force =    -0.05395292   -0.09344920   -0.16028362
     The ionic contribution  to forces
     atom    1 type  1   force =     9.45401642   -0.00000000   -1.10996608
     atom    2 type  1   force =    -4.72700821    8.18741838   -1.10996608
     atom    3 type  1   force =    -4.72700821   -8.18741838   -1.10996608
     atom    4 type  2   force =     0.00000000   -0.00000000  -39.06654366
     atom    5 type  2   force =     2.92935145    0.00000000  -26.60565362
     atom    6 type  2   force =    -1.46467573    2.53689277  -26.60565362
     atom    7 type  2   force =    -1.46467573   -2.53689277  -26.60565362
     atom    8 type  2   force =     0.00000000    0.00000000   26.48300410
     atom    9 type  2   force =    -5.77850959   -0.00000000   31.91013289
     atom   10 type  2   force =     2.88925480   -5.00433610   31.91013290
     atom   11 type  2   force =     2.88925480    5.00433610   31.91013290
     The local contribution  to forces
     atom    1 type  1   force =    -9.24700799   -0.00000000    1.14698326
     atom    2 type  1   force =     4.62350393   -8.00814379    1.14698326
     atom    3 type  1   force =     4.62350393    8.00814379    1.14698326
     atom    4 type  2   force =    -0.00000000    0.00000000   38.83434346
     atom    5 type  2   force =    -2.84117946    0.00000000   26.46718477
     atom    6 type  2   force =     1.42058973   -2.46053359   26.46718477
     atom    7 type  2   force =     1.42058973    2.46053359   26.46718477
     atom    8 type  2   force =     0.00000000   -0.00000000  -26.32455809
     atom    9 type  2   force =     5.67126381    0.00000000  -31.74815589
     atom   10 type  2   force =    -2.83563190    4.91145853  -31.74815589
     atom   11 type  2   force =    -2.83563190   -4.91145853  -31.74815589
     The core correction contribution to forces
     atom    1 type  1   force =     0.00000000    0.00000000    0.00000000
     atom    2 type  1   force =     0.00000000    0.00000000    0.00000000
     atom    3 type  1   force =     0.00000000    0.00000000    0.00000000
     atom    4 type  2   force =     0.00000000    0.00000000    0.00000000
     atom    5 type  2   force =     0.00000000    0.00000000    0.00000000
     atom    6 type  2   force =     0.00000000    0.00000000    0.00000000
     atom    7 type  2   force =     0.00000000    0.00000000    0.00000000
     atom    8 type  2   force =     0.00000000    0.00000000    0.00000000
     atom    9 type  2   force =     0.00000000    0.00000000    0.00000000
     atom   10 type  2   force =     0.00000000    0.00000000    0.00000000
     atom   11 type  2   force =     0.00000000    0.00000000    0.00000000
     The Hubbard contrib.    to forces
     atom    1 type  1   force =     0.00000000    0.00000000    0.00000000
     atom    2 type  1   force =     0.00000000    0.00000000    0.00000000
     atom    3 type  1   force =     0.00000000    0.00000000    0.00000000
     atom    4 type  2   force =     0.00000000    0.00000000    0.00000000
     atom    5 type  2   force =     0.00000000    0.00000000    0.00000000
     atom    6 type  2   force =     0.00000000    0.00000000    0.00000000
     atom    7 type  2   force =     0.00000000    0.00000000    0.00000000
     atom    8 type  2   force =     0.00000000    0.00000000    0.00000000
     atom    9 type  2   force =     0.00000000    0.00000000    0.00000000
     atom   10 type  2   force =     0.00000000    0.00000000    0.00000000
     atom   11 type  2   force =     0.00000000    0.00000000    0.00000000
     The SCF correction term to forces
     atom    1 type  1   force =    -0.00000055    0.00000000    0.00000247
     atom    2 type  1   force =     0.00000027   -0.00000047    0.00000247
     atom    3 type  1   force =     0.00000027    0.00000047    0.00000247
     atom    4 type  2   force =     0.00000000   -0.00000000    0.00000094
     atom    5 type  2   force =    -0.00000006    0.00000000    0.00000120
     atom    6 type  2   force =     0.00000003   -0.00000005    0.00000120
     atom    7 type  2   force =     0.00000003    0.00000005    0.00000120
     atom    8 type  2   force =    -0.00000000   -0.00000000    0.00000073
     atom    9 type  2   force =     0.00000036    0.00000000    0.00000019
     atom   10 type  2   force =    -0.00000018    0.00000031    0.00000019
     atom   11 type  2   force =    -0.00000018   -0.00000031    0.00000019

     DFT-D3 dispersion contribution to forces:
     atom    1 type  1   force =    -0.00161861    0.00000000    0.00005312
     atom    2 type  1   force =     0.00080931   -0.00140176    0.00005312
     atom    3 type  1   force =     0.00080931    0.00140176    0.00005312
     atom    4 type  2   force =     0.00000000   -0.00000000    0.00105349
     atom    5 type  2   force =     0.00073414    0.00000000    0.00108680
     atom    6 type  2   force =    -0.00036707    0.00063578    0.00108680
     atom    7 type  2   force =    -0.00036707   -0.00063578    0.00108680
     atom    8 type  2   force =    -0.00000000    0.00000000    0.00060739
     atom    9 type  2   force =    -0.00066070   -0.00000000   -0.00169354
     atom   10 type  2   force =     0.00033035   -0.00057218   -0.00169354
     atom   11 type  2   force =     0.00033035    0.00057218   -0.00169354

     Total force =     0.000002     Total SCF correction =     0.000005

     DFT-D3 dispersion Force =     0.004942
     SCF correction compared to forces is large: reduce conv_thr to get better values


     Computing stress (Cartesian axis) and pressure

          total   stress  (Ry/bohr**3)                   (kbar)     P=        0.53
   0.00000558   0.00000000   0.00000000            0.82        0.00        0.00
  -0.00000000   0.00000558   0.00000000           -0.00        0.82        0.00
   0.00000000   0.00000000  -0.00000026            0.00        0.00       -0.04

     kinetic stress (kbar)   1817.53      0.00      0.00
                                0.00   1817.53      0.00
                                0.00      0.00   1795.29

     local   stress (kbar) -84827.91     -0.00     -0.00
                               -0.00 -84827.91     -0.00
                               -0.00     -0.00  83297.18

     nonloc. stress (kbar)    965.37     -0.00     -0.00
                               -0.00    965.37     -0.00
                               -0.00     -0.00    969.64

     hartree stress (kbar)  42040.25     -0.00      0.00
                               -0.00  42040.25      0.00
                                0.00      0.00 -40830.27

     exc-cor stress (kbar)   -400.60     -0.00     -0.00
                               -0.00   -400.60      0.00
                               -0.00      0.00   -401.70

     corecor stress (kbar)      0.00      0.00      0.00
                                0.00      0.00      0.00
                                0.00      0.00      0.00

     ewald   stress (kbar)  40407.87      0.00      0.00
                                0.00  40407.87     -0.00
                                0.00     -0.00 -44829.74

     hubbard stress (kbar)      0.00      0.00      0.00
                                0.00      0.00      0.00
                                0.00      0.00      0.00

     DFT-D   stress (kbar)     -1.68     -0.00     -0.00
                               -0.00     -1.68      0.00
                               -0.00      0.00     -0.44

     XDM     stress (kbar)      0.00      0.00      0.00
                                0.00      0.00      0.00
                                0.00      0.00      0.00

     dft-nl  stress (kbar)      0.00      0.00      0.00
                                0.00      0.00      0.00
                                0.00      0.00      0.00

     TS-vdW  stress (kbar)      0.00      0.00      0.00
                                0.00      0.00      0.00
                                0.00      0.00      0.00

     MDB     stress (kbar)      0.00      0.00      0.00
                                0.00      0.00      0.00
                                0.00      0.00      0.00

     3D-RISM stress (kbar)      0.00      0.00      0.00
                                0.00      0.00      0.00
                                0.00      0.00      0.00


     Damped Dynamics: convergence achieved in  23 steps

     End of damped dynamics calculation

     Final energy =    -559.0792380969 Ry

Begin final coordinates
     new unit-cell volume =   9490.83920 a.u.^3 (  1406.39727 Ang^3 )
     density =      1.08383 g/cm^3

CELL_PARAMETERS (angstrom)
   6.138027874   3.543792045   0.000000000
  -6.138027874   3.543792045   0.000000000
   0.000000000   0.000000000  32.328156026

ATOMIC_POSITIONS (crystal)
Nb               0.1353259998       -0.1353259998       -0.1021291209
Nb               0.1353259998        0.2706519995       -0.1021291209
Nb              -0.2706519995       -0.1353259998       -0.1021291209
Br               0.0000000000       -0.0000000000       -0.1637010101
Br              -0.4972308409        0.4972308409       -0.1465882231
Br              -0.4972308409        0.0055383181       -0.1465882231
Br              -0.0055383181        0.4972308409       -0.1465882231
Br               0.3333333333       -0.3333333333       -0.0580334954
Br              -0.1655754153        0.1655754153       -0.0472261136
Br              -0.1655754153       -0.3311508304       -0.0472261136
Br               0.3311508304        0.1655754153       -0.0472261136
End final coordinates



     Writing all to output data dir ./out/Nb3Br8.save/ :
     XML data file, charge density, pseudopotentials, collected wavefunctions

     init_run     :      1.42s CPU      1.54s WALL (       1 calls)
     electrons    :    275.98s CPU    367.69s WALL (      24 calls)
     update_pot   :     65.66s CPU    167.73s WALL (      23 calls)
     forces       :      5.67s CPU      6.36s WALL (      24 calls)
     force_dftd3  :      0.27s CPU      0.29s WALL (      24 calls)
     stress       :     42.97s CPU     45.30s WALL (      24 calls)
     stres_dftd3  :      0.08s CPU      0.09s WALL (      24 calls)

     Called by init_run:
     wfcinit      :      0.25s CPU      0.28s WALL (       1 calls)
     wfcinit:wfcr :      0.21s CPU      0.23s WALL (       1 calls)
     potinit      :      0.21s CPU      0.22s WALL (       1 calls)
     hinit0       :      0.51s CPU      0.54s WALL (       1 calls)

     Called by electrons:
     c_bands      :    221.23s CPU    235.80s WALL (     213 calls)
     sum_band     :     25.39s CPU     28.09s WALL (     213 calls)
     v_of_rho     :     17.84s CPU     19.27s WALL (     213 calls)
     v_h          :      1.45s CPU      1.62s WALL (     213 calls)
     v_xc         :     16.39s CPU     17.65s WALL (     213 calls)
     mix_rho      :      4.78s CPU      4.98s WALL (     213 calls)
     energy_dftd3 :      0.24s CPU      0.24s WALL (      24 calls)

     Called by c_bands:
     init_us_2    :     10.47s CPU     10.87s WALL (     427 calls)
     cegterg      :    173.59s CPU    187.17s WALL (     213 calls)

     Called by sum_band:
     sum_band:wei :      0.41s CPU      0.42s WALL (     213 calls)
     sum_band:loo :     20.63s CPU     22.61s WALL (     213 calls)
     sum_band:buf :      0.00s CPU      0.00s WALL (     213 calls)
     sum_band:ini :      5.55s CPU      5.78s WALL (     213 calls)

     Called by *egterg:
     cdiaghg      :      5.38s CPU      5.48s WALL (    1385 calls)
     cegterg:over :     13.47s CPU     13.73s WALL (    1219 calls)
     cegterg:upda :     11.36s CPU     11.83s WALL (    1219 calls)
     cegterg:last :     13.52s CPU     13.81s WALL (     551 calls)
     h_psi        :    122.87s CPU    135.21s WALL (    1433 calls)
     g_psi        :      0.68s CPU      0.70s WALL (    1219 calls)

     Called by h_psi:
     h_psi:calbec :     18.22s CPU     18.63s WALL (    1433 calls)
     vloc_psi     :     84.64s CPU     95.74s WALL (    1433 calls)
     add_vuspsi   :     17.45s CPU     17.82s WALL (    1433 calls)

     General routines
     calbec       :     25.35s CPU     25.86s WALL (    1575 calls)
     fft          :      6.16s CPU      7.40s WALL (    2345 calls)
     ffts         :      1.02s CPU      1.12s WALL (     213 calls)
     fftw         :     87.68s CPU     99.71s WALL (   88300 calls)
     davcio       :      0.02s CPU      5.53s WALL (      88 calls)

     Parallel routines

     PWSCF        :    395.81s CPU    671.00s WALL


   This run was terminated on:  22:17:14   7May2025            

=------------------------------------------------------------------------------=
   JOB DONE.
=------------------------------------------------------------------------------=
