
     Program PHONON v.7.3.1 starts on  7May2025 at 20:50:49 

     This program is part of the open-source Quantum ESPRESSO suite
     for quantum simulation of materials; please cite
         "P. Giannozzi et al., J. Phys.:Condens. Matter 21 395502 (2009);
         "P. Giannozzi et al., J. Phys.:Condens. Matter 29 465901 (2017);
         "P. Giannozzi et al., J. Chem. Phys. 152 154105 (2020);
          URL http://www.quantum-espresso.org", 
     in publications or presentations arising from this work. More details at
     http://www.quantum-espresso.org/quote

     Parallel version (MPI & OpenMP), running on     384 processor cores
     Number of MPI processes:               384
     Threads/MPI process:                     1

     MPI processes distributed on     2 nodes
     328917 MiB available memory on the printing compute node when the environment starts

     Waiting for input...
     Reading input from standard input
     Run is not recoverable starting from scratch

     Reading xml data from directory:

     ./out/Nb3F8.save/

     K-points division:     npool     =      12
     R & G space division:  proc/nbgrp/npool/nimage =      32
     Subspace diagonalization in iterative solution of the eigenvalue problem:
     a serial algorithm will be used


     IMPORTANT: XC functional enforced from input :
     Exchange-correlation= PBE
                           (   1   4   3   4   0   0   0)
     Any further DFT definition will be discarded
     Please, verify this is what you really want


     Parallelization info
     --------------------
     sticks:   dense  smooth     PW     G-vecs:    dense   smooth      PW
     Min         107     107     28                20893    20893    2906
     Max         108     108     29                20918    20918    2929
     Sum        3427    3427    925               668819   668819   93523

     Using Slab Decomposition

     Message from routine divide_et_impera:
     suboptimal parallelization: some nodes have no k-points
     Reading collected, re-writing distributed wavefunctions in ./out/


     Dynamical matrices for ( 2, 2, 1)  uniform grid of q-points
     (   2 q-points):
       N         xq(1)         xq(2)         xq(3) 
       1   0.000000000   0.000000000   0.000000000
       2   0.288675135  -0.500000000   0.000000000

     Number and degeneracy of irreps per q-point
       N         xq(1)         xq(2)         xq(3)   N irreps
       1   0.000000000   0.000000000   0.000000000      44
        1   1   1   1   1   1   1   1   1   1   1   2   2   2   2   2   2   2
   2   2   2   2   1   1   1   1   1   1   1   1   1   1   1   2   2   2
   2   2   2   2   2   2   2   2
Eigenvectors exchange needed   16   32
       2   0.288675135  -0.500000000   0.000000000      65
        1   1   1   1   1   1   1   1   1   1   1   1   1   1   1   2   1   1
   1   1   1   1   1   1   1   1   1   1   1   1   1   1   1   1   1   1
   1   1   1   1   1   1   1   1   1   1   1   1   1   1   1   1   1   1
   1   1   1   1   1   1   1   1   1   1   1

     Saving dvscf to file. Distribute only q points, not irreducible representations.

     Calculation of q =    0.0000000   0.0000000   0.0000000

     Nb3F8                                                                      

     bravais-lattice index     =            0
     lattice parameter (alat)  =      11.1557  a.u.
     unit-cell volume          =    4949.5834 (a.u.)^3
     number of atoms/cell      =           22
     number of atomic types    =            2
     kinetic-energy cut-off    =     100.0000  Ry
     charge density cut-off    =     400.0000  Ry
     convergence threshold     =      1.0E-16
     beta                      =       0.7000
     number of iterations used =            4
     Exchange-correlation= PBE
                           (   1   4   3   4   0   0   0)


     celldm(1)=   11.15573  celldm(2)=    0.00000  celldm(3)=    0.00000
     celldm(4)=    0.00000  celldm(5)=    0.00000  celldm(6)=    0.00000

     crystal axes: (cart. coord. in units of alat)
               a(1) = (  0.8660  0.5000  0.0000 )  
               a(2) = ( -0.8660  0.5000  0.0000 )  
               a(3) = (  0.0000  0.0000  4.1166 )  

     reciprocal axes: (cart. coord. in units 2 pi/alat)
               b(1) = (  0.5774  1.0000 -0.0000 )  
               b(2) = ( -0.5774  1.0000  0.0000 )  
               b(3) = (  0.0000 -0.0000  0.2429 )  


     Atoms inside the unit cell: 

     Cartesian axes

     site n.  atom      mass           positions (alat units)
        1  Nb     92.9064   tau(    1) = (    0.25223   -0.00000   -0.42768  )
        2  Nb     92.9064   tau(    2) = (   -0.12611    0.21843   -0.42768  )
        3  Nb     92.9064   tau(    3) = (   -0.12611   -0.21843   -0.42768  )
        4  Nb     92.9064   tau(    4) = (   -0.25223    0.00000    0.42768  )
        5  Nb     92.9064   tau(    5) = (    0.12611   -0.21843    0.42768  )
        6  Nb     92.9064   tau(    6) = (    0.12611    0.21843    0.42768  )
        7  F      18.9984   tau(    7) = (    0.00000    0.00000   -0.69400  )
        8  F      18.9984   tau(    8) = (    0.85400    0.00000   -0.61450  )
        9  F      18.9984   tau(    9) = (    0.43902    0.23959   -0.61450  )
       10  F      18.9984   tau(   10) = (    0.43902   -0.23959   -0.61450  )
       11  F      18.9984   tau(   11) = (    0.57735   -0.00000   -0.23553  )
       12  F      18.9984   tau(   12) = (   -0.28031   -0.00000   -0.20031  )
       13  F      18.9984   tau(   13) = (    0.14016   -0.24276   -0.20031  )
       14  F      18.9984   tau(   14) = (    0.14016    0.24276   -0.20031  )
       15  F      18.9984   tau(   15) = (    0.28031    0.00000    0.20031  )
       16  F      18.9984   tau(   16) = (   -0.14016    0.24276    0.20031  )
       17  F      18.9984   tau(   17) = (   -0.14016   -0.24276    0.20031  )
       18  F      18.9984   tau(   18) = (   -0.57735    0.00000    0.23553  )
       19  F      18.9984   tau(   19) = (   -0.85400   -0.00000    0.61450  )
       20  F      18.9984   tau(   20) = (   -0.43902   -0.23959    0.61450  )
       21  F      18.9984   tau(   21) = (   -0.43902    0.23959    0.61450  )
       22  F      18.9984   tau(   22) = (    0.00000    0.00000    0.69400  )

     Computing dynamical matrix for 
                    q = (   0.0000000   0.0000000   0.0000000 )

     13 Sym.Ops. (with q -> -q+G )


     G cutoff = 1260.9456  (  20905 G-vectors)     FFT grid: ( 72, 72,300)

     number of k points=     7  Gaussian smearing, width (Ry)=  0.0037

     PseudoPot. # 1 for Nb read from file:
     /scratch-shared/mroesner/Nb3X8_cDFPT/pp/Nb_ONCV_PBE-1.2.upf
     MD5 check sum: 2c750ac0b6910ff4cf0ab5f6c4124a64
     Pseudo is Norm-conserving, Zval = 13.0
     Generated using ONCVPSP code by D. R. Hamann
     Using radial grid of  602 points,  6 beta functions with: 
                l(1) =   0
                l(2) =   0
                l(3) =   1
                l(4) =   1
                l(5) =   2
                l(6) =   2

     PseudoPot. # 2 for F  read from file:
     /scratch-shared/mroesner/Nb3X8_cDFPT/pp/F_ONCV_PBE-1.2.upf
     MD5 check sum: 1d8275f47d602dd53cad6bcdc0eda7dc
     Pseudo is Norm-conserving, Zval =  7.0
     Generated using ONCVPSP code by D. R. Hamann
     Using radial grid of  602 points,  4 beta functions with: 
                l(1) =   0
                l(2) =   0
                l(3) =   1
                l(4) =   1

     Mode symmetry, D_3d (-3m)  point group:


     Atomic displacements:
     There are   44 irreducible representations

     Representation     1      1 modes -  To be done

     Representation     2      1 modes -  To be done

     Representation     3      1 modes -  To be done

     Representation     4      1 modes -  To be done

     Representation     5      1 modes -  To be done

     Representation     6      1 modes -  To be done

     Representation     7      1 modes -  To be done

     Representation     8      1 modes -  To be done

     Representation     9      1 modes -  To be done

     Representation    10      1 modes -  To be done

     Representation    11      1 modes -  To be done

     Representation    12      2 modes -  To be done

     Representation    13      2 modes -  To be done

     Representation    14      2 modes -  To be done

     Representation    15      2 modes -  To be done

     Representation    16      2 modes -  To be done

     Representation    17      2 modes -  To be done

     Representation    18      2 modes -  To be done

     Representation    19      2 modes -  To be done

     Representation    20      2 modes -  To be done

     Representation    21      2 modes -  To be done

     Representation    22      2 modes -  To be done

     Representation    23      1 modes -  To be done

     Representation    24      1 modes -  To be done

     Representation    25      1 modes -  To be done

     Representation    26      1 modes -  To be done

     Representation    27      1 modes -  To be done

     Representation    28      1 modes -  To be done

     Representation    29      1 modes -  To be done

     Representation    30      1 modes -  To be done

     Representation    31      1 modes -  To be done

     Representation    32      1 modes -  To be done

     Representation    33      1 modes -  To be done

     Representation    34      2 modes -  To be done

     Representation    35      2 modes -  To be done

     Representation    36      2 modes -  To be done

     Representation    37      2 modes -  To be done

     Representation    38      2 modes -  To be done

     Representation    39      2 modes -  To be done

     Representation    40      2 modes -  To be done

     Representation    41      2 modes -  To be done

     Representation    42      2 modes -  To be done

     Representation    43      2 modes -  To be done

     Representation    44      2 modes -  To be done



     Alpha used in Ewald sum =   2.8000

     Reading Grimme-D3 Hessian from file: ./out/Nb3F8.hess

     Number of cells replicated along each semiaxis:   10  10   3
     Number of cells in the supercell:      3087
     Number of atoms in the supercell:     67914
     Hessian allocation dimension:  13446972

     Grimme-D3 Hessian read 

     Computing dynamical matrix for q:     0.000000    0.000000    0.000000

     Writing Hessian on file dynamical.false.dat

     Dynamical matrix computed
     PHONON       :    436.71s CPU    473.83s WALL



     Representation #   1 mode #   1

     Self-consistent Calculation

     Pert. #  1: Fermi energy shift (Ry) =    -4.6455E-01     2.0195E-28

      iter #   1 total cpu time :   554.3 secs   av.it.:   7.9
      thresh= 1.000E-02 alpha_mix =  0.700 |ddv_scf|^2 =  2.876E-07

     Pert. #  1: Fermi energy shift (Ry) =     4.6174E-01     4.0390E-28

      iter #   2 total cpu time :   603.1 secs   av.it.:  17.3
      thresh= 5.362E-05 alpha_mix =  0.700 |ddv_scf|^2 =  3.092E-07

     Pert. #  1: Fermi energy shift (Ry) =    -1.4903E-01     1.0097E-28

      iter #   3 total cpu time :   638.9 secs   av.it.:  16.4
      thresh= 5.561E-05 alpha_mix =  0.700 |ddv_scf|^2 =  6.269E-09

     Pert. #  1: Fermi energy shift (Ry) =    -6.9274E-02     1.0097E-28

      iter #   4 total cpu time :   669.6 secs   av.it.:  16.4
      thresh= 7.918E-06 alpha_mix =  0.700 |ddv_scf|^2 =  2.998E-10

     Pert. #  1: Fermi energy shift (Ry) =    -7.1086E-02     1.0097E-28

      iter #   5 total cpu time :   704.2 secs   av.it.:  15.7
      thresh= 1.731E-06 alpha_mix =  0.700 |ddv_scf|^2 =  3.473E-11

     Pert. #  1: Fermi energy shift (Ry) =    -7.1549E-02     1.0097E-28

      iter #   6 total cpu time :   731.2 secs   av.it.:  16.4
      thresh= 5.893E-07 alpha_mix =  0.700 |ddv_scf|^2 =  1.831E-12

     Pert. #  1: Fermi energy shift (Ry) =    -7.0946E-02     1.0097E-28

      iter #   7 total cpu time :   756.9 secs   av.it.:  16.7
      thresh= 1.353E-07 alpha_mix =  0.700 |ddv_scf|^2 =  4.166E-13

     Pert. #  1: Fermi energy shift (Ry) =    -7.1435E-02     1.0097E-28

      iter #   8 total cpu time :   778.8 secs   av.it.:  16.7
      thresh= 6.454E-08 alpha_mix =  0.700 |ddv_scf|^2 =  7.391E-14

     Pert. #  1: Fermi energy shift (Ry) =    -7.1420E-02     1.0097E-28

      iter #   9 total cpu time :   801.9 secs   av.it.:  16.3
      thresh= 2.719E-08 alpha_mix =  0.700 |ddv_scf|^2 =  5.592E-15

     Pert. #  1: Fermi energy shift (Ry) =    -7.1462E-02     1.0097E-28

      iter #  10 total cpu time :   831.9 secs   av.it.:  16.9
      thresh= 7.478E-09 alpha_mix =  0.700 |ddv_scf|^2 =  1.477E-15

     Pert. #  1: Fermi energy shift (Ry) =    -7.1431E-02     1.0097E-28

      iter #  11 total cpu time :   872.2 secs   av.it.:  16.4
      thresh= 3.844E-09 alpha_mix =  0.700 |ddv_scf|^2 =  1.963E-16

     Pert. #  1: Fermi energy shift (Ry) =    -7.1429E-02     1.0097E-28

      iter #  12 total cpu time :   951.1 secs   av.it.:  16.6
      thresh= 1.401E-09 alpha_mix =  0.700 |ddv_scf|^2 =  2.482E-17

     End of self-consistent calculation

     Convergence has been achieved 


     Representation #   2 mode #   2

     Self-consistent Calculation

     Pert. #  1: Fermi energy shift (Ry) =    -4.6143E-02    -9.0877E-28

      iter #   1 total cpu time :   992.3 secs   av.it.:   7.0
      thresh= 1.000E-02 alpha_mix =  0.700 |ddv_scf|^2 =  6.298E-08

     Pert. #  1: Fermi energy shift (Ry) =     1.8552E-02    -3.5341E-28

      iter #   2 total cpu time :  1032.4 secs   av.it.:  17.0
      thresh= 2.510E-05 alpha_mix =  0.700 |ddv_scf|^2 =  1.689E-08

     Pert. #  1: Fermi energy shift (Ry) =     2.7382E-02    -5.0487E-28

      iter #   3 total cpu time :  1088.6 secs   av.it.:  16.9
      thresh= 1.300E-05 alpha_mix =  0.700 |ddv_scf|^2 =  7.869E-09

     Pert. #  1: Fermi energy shift (Ry) =    -4.6939E-03    -4.5438E-28

      iter #   4 total cpu time :  1123.7 secs   av.it.:  15.6
      thresh= 8.871E-06 alpha_mix =  0.700 |ddv_scf|^2 =  6.161E-10

     Pert. #  1: Fermi energy shift (Ry) =     1.0301E-02    -4.5438E-28

      iter #   5 total cpu time :  1158.6 secs   av.it.:  15.7
      thresh= 2.482E-06 alpha_mix =  0.700 |ddv_scf|^2 =  2.600E-11

     Pert. #  1: Fermi energy shift (Ry) =     5.9896E-03    -4.5438E-28

      iter #   6 total cpu time :  1186.6 secs   av.it.:  17.3
      thresh= 5.099E-07 alpha_mix =  0.700 |ddv_scf|^2 =  2.069E-12

     Pert. #  1: Fermi energy shift (Ry) =     8.0095E-03    -4.5438E-28

      iter #   7 total cpu time :  1204.9 secs   av.it.:  16.9
      thresh= 1.439E-07 alpha_mix =  0.700 |ddv_scf|^2 =  8.940E-14

     Pert. #  1: Fermi energy shift (Ry) =     7.3864E-03    -4.5438E-28

      iter #   8 total cpu time :  1226.3 secs   av.it.:  17.3
      thresh= 2.990E-08 alpha_mix =  0.700 |ddv_scf|^2 =  3.696E-14

     Pert. #  1: Fermi energy shift (Ry) =     7.6056E-03    -4.5438E-28

      iter #   9 total cpu time :  1249.4 secs   av.it.:  17.3
      thresh= 1.922E-08 alpha_mix =  0.700 |ddv_scf|^2 =  7.807E-15

     Pert. #  1: Fermi energy shift (Ry) =     7.5645E-03    -4.5438E-28

      iter #  10 total cpu time :  1275.7 secs   av.it.:  17.4
      thresh= 8.836E-09 alpha_mix =  0.700 |ddv_scf|^2 =  2.133E-15

     Pert. #  1: Fermi energy shift (Ry) =     7.5214E-03    -4.5438E-28

      iter #  11 total cpu time :  1299.9 secs   av.it.:  16.3
      thresh= 4.618E-09 alpha_mix =  0.700 |ddv_scf|^2 =  1.175E-15

     Pert. #  1: Fermi energy shift (Ry) =     7.5549E-03    -4.5438E-28

      iter #  12 total cpu time :  1323.3 secs   av.it.:  16.4
      thresh= 3.428E-09 alpha_mix =  0.700 |ddv_scf|^2 =  8.152E-17

     End of self-consistent calculation

     Convergence has been achieved 


     Representation #   3 mode #   3

     Self-consistent Calculation

     Pert. #  1: Fermi energy shift (Ry) =     7.5573E-01     0.0000E+00

      iter #   1 total cpu time :  1482.7 secs   av.it.:   6.9
      thresh= 1.000E-02 alpha_mix =  0.700 |ddv_scf|^2 =  3.016E-07

     Pert. #  1: Fermi energy shift (Ry) =    -7.2012E-01     0.0000E+00

      iter #   2 total cpu time :  1511.3 secs   av.it.:  16.1
      thresh= 5.492E-05 alpha_mix =  0.700 |ddv_scf|^2 =  3.949E-07

     Pert. #  1: Fermi energy shift (Ry) =     2.3586E-02     0.0000E+00

      iter #   3 total cpu time :  1564.9 secs   av.it.:  15.3
      thresh= 6.284E-05 alpha_mix =  0.700 |ddv_scf|^2 =  4.778E-08

     Pert. #  1: Fermi energy shift (Ry) =    -2.0527E-02     0.0000E+00

      iter #   4 total cpu time :  1592.0 secs   av.it.:  14.9
      thresh= 2.186E-05 alpha_mix =  0.700 |ddv_scf|^2 =  6.572E-10

     Pert. #  1: Fermi energy shift (Ry) =    -6.3117E-02     0.0000E+00

      iter #   5 total cpu time :  1628.2 secs   av.it.:  17.3
      thresh= 2.564E-06 alpha_mix =  0.700 |ddv_scf|^2 =  1.605E-10

     Pert. #  1: Fermi energy shift (Ry) =    -4.4098E-02     0.0000E+00

      iter #   6 total cpu time :  1652.6 secs   av.it.:  16.9
      thresh= 1.267E-06 alpha_mix =  0.700 |ddv_scf|^2 =  2.081E-11

     Pert. #  1: Fermi energy shift (Ry) =    -4.5563E-02     0.0000E+00

      iter #   7 total cpu time :  1677.4 secs   av.it.:  17.3
      thresh= 4.562E-07 alpha_mix =  0.700 |ddv_scf|^2 =  8.609E-12

     Pert. #  1: Fermi energy shift (Ry) =    -4.6626E-02     0.0000E+00

      iter #   8 total cpu time :  1702.1 secs   av.it.:  15.6
      thresh= 2.934E-07 alpha_mix =  0.700 |ddv_scf|^2 =  1.574E-13

     Pert. #  1: Fermi energy shift (Ry) =    -4.6568E-02     0.0000E+00

      iter #   9 total cpu time :  1734.8 secs   av.it.:  18.0
      thresh= 3.967E-08 alpha_mix =  0.700 |ddv_scf|^2 =  2.212E-13

     Pert. #  1: Fermi energy shift (Ry) =    -4.6594E-02     0.0000E+00

      iter #  10 total cpu time :  1759.6 secs   av.it.:  16.3
      thresh= 4.703E-08 alpha_mix =  0.700 |ddv_scf|^2 =  3.250E-16

     Pert. #  1: Fermi energy shift (Ry) =    -4.6580E-02     0.0000E+00

      iter #  11 total cpu time :  1784.8 secs   av.it.:  17.6
      thresh= 1.803E-09 alpha_mix =  0.700 |ddv_scf|^2 =  1.511E-16

     Pert. #  1: Fermi energy shift (Ry) =    -4.6587E-02     0.0000E+00

      iter #  12 total cpu time :  1808.8 secs   av.it.:  17.1
      thresh= 1.229E-09 alpha_mix =  0.700 |ddv_scf|^2 =  2.509E-17

     End of self-consistent calculation

     Convergence has been achieved 


     Representation #   4 mode #   4

     Self-consistent Calculation

     Pert. #  1: Fermi energy shift (Ry) =     1.0944E+00    -1.5146E-28

      iter #   1 total cpu time :  1886.0 secs   av.it.:   8.4
      thresh= 1.000E-02 alpha_mix =  0.700 |ddv_scf|^2 =  4.293E-06

     Pert. #  1: Fermi energy shift (Ry) =    -2.2601E+00     8.0779E-28

      iter #   2 total cpu time :  1932.1 secs   av.it.:  16.3
      thresh= 2.072E-04 alpha_mix =  0.700 |ddv_scf|^2 =  1.762E-05

     Pert. #  1: Fermi energy shift (Ry) =     5.5887E-02     5.0487E-29

      iter #   3 total cpu time :  1959.9 secs   av.it.:  14.3
      thresh= 4.197E-04 alpha_mix =  0.700 |ddv_scf|^2 =  1.779E-08

     Pert. #  1: Fermi energy shift (Ry) =     1.9842E-02     7.5731E-29

      iter #   4 total cpu time :  1991.0 secs   av.it.:  16.6
      thresh= 1.334E-05 alpha_mix =  0.700 |ddv_scf|^2 =  9.612E-09

     Pert. #  1: Fermi energy shift (Ry) =     4.2889E-02     5.0487E-29

      iter #   5 total cpu time :  2037.2 secs   av.it.:  14.9
      thresh= 9.804E-06 alpha_mix =  0.700 |ddv_scf|^2 =  2.638E-11

     Pert. #  1: Fermi energy shift (Ry) =     5.0525E-02     7.5731E-29

      iter #   6 total cpu time :  2060.0 secs   av.it.:  17.3
      thresh= 5.136E-07 alpha_mix =  0.700 |ddv_scf|^2 =  1.479E-11

     Pert. #  1: Fermi energy shift (Ry) =     4.7066E-02     5.0487E-29

      iter #   7 total cpu time :  2098.1 secs   av.it.:  16.0
      thresh= 3.845E-07 alpha_mix =  0.700 |ddv_scf|^2 =  1.161E-12

     Pert. #  1: Fermi energy shift (Ry) =     4.8171E-02     5.0487E-29

      iter #   8 total cpu time :  2123.9 secs   av.it.:  16.6
      thresh= 1.078E-07 alpha_mix =  0.700 |ddv_scf|^2 =  1.666E-13

     Pert. #  1: Fermi energy shift (Ry) =     4.7690E-02     5.0487E-29

      iter #   9 total cpu time :  2143.5 secs   av.it.:  16.9
      thresh= 4.082E-08 alpha_mix =  0.700 |ddv_scf|^2 =  5.679E-14

     Pert. #  1: Fermi energy shift (Ry) =     4.7813E-02     5.0487E-29

      iter #  10 total cpu time :  2162.7 secs   av.it.:  16.7
      thresh= 2.383E-08 alpha_mix =  0.700 |ddv_scf|^2 =  4.716E-14

     Pert. #  1: Fermi energy shift (Ry) =     4.7826E-02     5.0487E-29

      iter #  11 total cpu time :  2182.7 secs   av.it.:  15.6
      thresh= 2.172E-08 alpha_mix =  0.700 |ddv_scf|^2 =  2.905E-15

     Pert. #  1: Fermi energy shift (Ry) =     4.7779E-02     5.0487E-29

      iter #  12 total cpu time :  2205.9 secs   av.it.:  16.3
      thresh= 5.390E-09 alpha_mix =  0.700 |ddv_scf|^2 =  2.098E-16

     Pert. #  1: Fermi energy shift (Ry) =     4.7786E-02     5.0487E-29

      iter #  13 total cpu time :  2242.1 secs   av.it.:  16.7
      thresh= 1.449E-09 alpha_mix =  0.700 |ddv_scf|^2 =  1.916E-17

     End of self-consistent calculation

     Convergence has been achieved 


     Representation #   5 mode #   5

     Self-consistent Calculation

     Pert. #  1: Fermi energy shift (Ry) =    -4.2309E-03     2.0195E-28

      iter #   1 total cpu time :  2336.5 secs   av.it.:   7.0
      thresh= 1.000E-02 alpha_mix =  0.700 |ddv_scf|^2 =  4.664E-07

     Pert. #  1: Fermi energy shift (Ry) =     2.7517E-01    -1.5146E-28

      iter #   2 total cpu time :  2403.5 secs   av.it.:  16.3
      thresh= 6.830E-05 alpha_mix =  0.700 |ddv_scf|^2 =  1.520E-06

     Pert. #  1: Fermi energy shift (Ry) =    -1.8811E-01     1.0097E-28

      iter #   3 total cpu time :  2450.6 secs   av.it.:  14.9
      thresh= 1.233E-04 alpha_mix =  0.700 |ddv_scf|^2 =  2.538E-08

     Pert. #  1: Fermi energy shift (Ry) =     5.2416E-03     1.5146E-28

      iter #   4 total cpu time :  2500.3 secs   av.it.:  15.4
      thresh= 1.593E-05 alpha_mix =  0.700 |ddv_scf|^2 =  7.667E-10

     Pert. #  1: Fermi energy shift (Ry) =    -3.1260E-02     1.0097E-28

      iter #   5 total cpu time :  2544.7 secs   av.it.:  17.3
      thresh= 2.769E-06 alpha_mix =  0.700 |ddv_scf|^2 =  1.556E-10

     Pert. #  1: Fermi energy shift (Ry) =    -3.0417E-02     1.0097E-28

      iter #   6 total cpu time :  2571.4 secs   av.it.:  15.9
      thresh= 1.247E-06 alpha_mix =  0.700 |ddv_scf|^2 =  2.392E-12

     Pert. #  1: Fermi energy shift (Ry) =    -3.0674E-02     1.0097E-28

      iter #   7 total cpu time :  2593.5 secs   av.it.:  16.7
      thresh= 1.547E-07 alpha_mix =  0.700 |ddv_scf|^2 =  2.116E-13

     Pert. #  1: Fermi energy shift (Ry) =    -3.0702E-02     1.0097E-28

      iter #   8 total cpu time :  2616.6 secs   av.it.:  17.1
      thresh= 4.600E-08 alpha_mix =  0.700 |ddv_scf|^2 =  6.714E-14

     Pert. #  1: Fermi energy shift (Ry) =    -3.0559E-02     1.0097E-28

      iter #   9 total cpu time :  2642.9 secs   av.it.:  17.4
      thresh= 2.591E-08 alpha_mix =  0.700 |ddv_scf|^2 =  1.397E-14

     Pert. #  1: Fermi energy shift (Ry) =    -3.0600E-02     1.0097E-28

      iter #  10 total cpu time :  2663.3 secs   av.it.:  17.1
      thresh= 1.182E-08 alpha_mix =  0.700 |ddv_scf|^2 =  1.124E-15

     Pert. #  1: Fermi energy shift (Ry) =    -3.0638E-02     1.0097E-28

      iter #  11 total cpu time :  2683.4 secs   av.it.:  17.1
      thresh= 3.353E-09 alpha_mix =  0.700 |ddv_scf|^2 =  6.902E-17

     End of self-consistent calculation

     Convergence has been achieved 


     Representation #   6 mode #   6

     Self-consistent Calculation

     Pert. #  1: Fermi energy shift (Ry) =    -1.0953E+00    -7.0682E-28

      iter #   1 total cpu time :  2791.7 secs   av.it.:   7.4
      thresh= 1.000E-02 alpha_mix =  0.700 |ddv_scf|^2 =  1.078E-06

     Pert. #  1: Fermi energy shift (Ry) =     1.2374E+00    -3.6351E-27

      iter #   2 total cpu time :  2824.5 secs   av.it.:  16.0
      thresh= 1.038E-04 alpha_mix =  0.700 |ddv_scf|^2 =  2.367E-06

     Pert. #  1: Fermi energy shift (Ry) =     1.7555E-02    -1.0097E-27

      iter #   3 total cpu time :  2863.9 secs   av.it.:  14.6
      thresh= 1.539E-04 alpha_mix =  0.700 |ddv_scf|^2 =  9.826E-08

     Pert. #  1: Fermi energy shift (Ry) =     5.8991E-02    -1.0097E-27

      iter #   4 total cpu time :  2932.3 secs   av.it.:  14.9
      thresh= 3.135E-05 alpha_mix =  0.700 |ddv_scf|^2 =  8.815E-10

     Pert. #  1: Fermi energy shift (Ry) =     8.0749E-02    -1.0097E-27

      iter #   5 total cpu time :  2968.4 secs   av.it.:  16.9
      thresh= 2.969E-06 alpha_mix =  0.700 |ddv_scf|^2 =  4.000E-10

     Pert. #  1: Fermi energy shift (Ry) =     5.1656E-02    -1.0097E-27

      iter #   6 total cpu time :  2996.7 secs   av.it.:  16.3
      thresh= 2.000E-06 alpha_mix =  0.700 |ddv_scf|^2 =  4.619E-11

     Pert. #  1: Fermi energy shift (Ry) =     5.5438E-02    -1.0097E-27

      iter #   7 total cpu time :  3021.8 secs   av.it.:  16.1
      thresh= 6.797E-07 alpha_mix =  0.700 |ddv_scf|^2 =  1.524E-12

     Pert. #  1: Fermi energy shift (Ry) =     5.4864E-02    -1.0097E-27

      iter #   8 total cpu time :  3055.2 secs   av.it.:  17.1
      thresh= 1.235E-07 alpha_mix =  0.700 |ddv_scf|^2 =  1.789E-13

     Pert. #  1: Fermi energy shift (Ry) =     5.5263E-02    -1.0097E-27

      iter #   9 total cpu time :  3084.7 secs   av.it.:  17.4
      thresh= 4.230E-08 alpha_mix =  0.700 |ddv_scf|^2 =  7.487E-14

     Pert. #  1: Fermi energy shift (Ry) =     5.5191E-02    -1.0097E-27

      iter #  10 total cpu time :  3111.5 secs   av.it.:  16.9
      thresh= 2.736E-08 alpha_mix =  0.700 |ddv_scf|^2 =  2.597E-15

     Pert. #  1: Fermi energy shift (Ry) =     5.5223E-02    -1.0097E-27

      iter #  11 total cpu time :  3132.6 secs   av.it.:  16.3
      thresh= 5.097E-09 alpha_mix =  0.700 |ddv_scf|^2 =  6.892E-17

     End of self-consistent calculation

     Convergence has been achieved 


     Representation #   7 mode #   7

     Self-consistent Calculation

     Pert. #  1: Fermi energy shift (Ry) =     7.5204E-02     6.3109E-30

      iter #   1 total cpu time :  3221.3 secs   av.it.:   7.0
      thresh= 1.000E-02 alpha_mix =  0.700 |ddv_scf|^2 =  2.051E-07

     Pert. #  1: Fermi energy shift (Ry) =    -2.9262E-01     1.0097E-28

      iter #   2 total cpu time :  3264.7 secs   av.it.:  16.3
      thresh= 4.528E-05 alpha_mix =  0.700 |ddv_scf|^2 =  6.235E-07

     Pert. #  1: Fermi energy shift (Ry) =     8.3852E-02     5.0487E-29

      iter #   3 total cpu time :  3295.5 secs   av.it.:  14.9
      thresh= 7.896E-05 alpha_mix =  0.700 |ddv_scf|^2 =  1.280E-08

     Pert. #  1: Fermi energy shift (Ry) =    -1.6150E-02     5.0487E-29

      iter #   4 total cpu time :  3329.4 secs   av.it.:  15.4
      thresh= 1.131E-05 alpha_mix =  0.700 |ddv_scf|^2 =  2.968E-10

     Pert. #  1: Fermi energy shift (Ry) =     5.0969E-03     5.0487E-29

      iter #   5 total cpu time :  3358.0 secs   av.it.:  17.3
      thresh= 1.723E-06 alpha_mix =  0.700 |ddv_scf|^2 =  8.722E-11

     Pert. #  1: Fermi energy shift (Ry) =     1.4981E-03     5.0487E-29

      iter #   6 total cpu time :  3382.9 secs   av.it.:  16.3
      thresh= 9.339E-07 alpha_mix =  0.700 |ddv_scf|^2 =  1.927E-12

     Pert. #  1: Fermi energy shift (Ry) =     3.1012E-03     5.0487E-29

      iter #   7 total cpu time :  3406.6 secs   av.it.:  16.6
      thresh= 1.388E-07 alpha_mix =  0.700 |ddv_scf|^2 =  1.813E-13

     Pert. #  1: Fermi energy shift (Ry) =     2.9051E-03     5.0487E-29

      iter #   8 total cpu time :  3436.4 secs   av.it.:  17.3
      thresh= 4.258E-08 alpha_mix =  0.700 |ddv_scf|^2 =  6.595E-14

     Pert. #  1: Fermi energy shift (Ry) =     2.9089E-03     5.0487E-29

      iter #   9 total cpu time :  3455.5 secs   av.it.:  17.0
      thresh= 2.568E-08 alpha_mix =  0.700 |ddv_scf|^2 =  1.484E-14

     Pert. #  1: Fermi energy shift (Ry) =     2.8451E-03     5.0487E-29

      iter #  10 total cpu time :  3477.7 secs   av.it.:  17.3
      thresh= 1.218E-08 alpha_mix =  0.700 |ddv_scf|^2 =  5.744E-15

     Pert. #  1: Fermi energy shift (Ry) =     2.9123E-03     5.0487E-29

      iter #  11 total cpu time :  3507.4 secs   av.it.:  16.3
      thresh= 7.579E-09 alpha_mix =  0.700 |ddv_scf|^2 =  2.913E-16

     Pert. #  1: Fermi energy shift (Ry) =     2.9231E-03     5.0487E-29

      iter #  12 total cpu time :  3542.3 secs   av.it.:  17.3
      thresh= 1.707E-09 alpha_mix =  0.700 |ddv_scf|^2 =  2.501E-16

     Pert. #  1: Fermi energy shift (Ry) =     2.9185E-03     5.0487E-29

      iter #  13 total cpu time :  3611.2 secs   av.it.:  16.3
      thresh= 1.582E-09 alpha_mix =  0.700 |ddv_scf|^2 =  7.938E-18

     End of self-consistent calculation

     Convergence has been achieved 


     Representation #   8 mode #   8

     Self-consistent Calculation

     Pert. #  1: Fermi energy shift (Ry) =     2.1693E-01     1.4136E-27

      iter #   1 total cpu time :  3641.6 secs   av.it.:   7.0
      thresh= 1.000E-02 alpha_mix =  0.700 |ddv_scf|^2 =  1.080E-07

     Pert. #  1: Fermi energy shift (Ry) =    -3.9889E-01    -5.5536E-28

      iter #   2 total cpu time :  3681.3 secs   av.it.:  17.3
      thresh= 3.286E-05 alpha_mix =  0.700 |ddv_scf|^2 =  1.804E-07

     Pert. #  1: Fermi energy shift (Ry) =     4.4439E-02     6.0585E-28

      iter #   3 total cpu time :  3737.4 secs   av.it.:  15.3
      thresh= 4.247E-05 alpha_mix =  0.700 |ddv_scf|^2 =  1.454E-08

     Pert. #  1: Fermi energy shift (Ry) =     8.1855E-04     9.0877E-28

      iter #   4 total cpu time :  3780.2 secs   av.it.:  15.4
      thresh= 1.206E-05 alpha_mix =  0.700 |ddv_scf|^2 =  1.307E-09

     Pert. #  1: Fermi energy shift (Ry) =    -1.4974E-02     8.0779E-28

      iter #   5 total cpu time :  3820.0 secs   av.it.:  16.3
      thresh= 3.615E-06 alpha_mix =  0.700 |ddv_scf|^2 =  5.553E-11

     Pert. #  1: Fermi energy shift (Ry) =    -5.0619E-03     9.0877E-28

      iter #   6 total cpu time :  3853.2 secs   av.it.:  17.3
      thresh= 7.452E-07 alpha_mix =  0.700 |ddv_scf|^2 =  2.551E-11

     Pert. #  1: Fermi energy shift (Ry) =    -1.1023E-02     8.0779E-28

      iter #   7 total cpu time :  3869.5 secs   av.it.:  17.3
      thresh= 5.051E-07 alpha_mix =  0.700 |ddv_scf|^2 =  9.088E-12

     Pert. #  1: Fermi energy shift (Ry) =    -8.8053E-03     8.0779E-28

      iter #   8 total cpu time :  3891.1 secs   av.it.:  16.1
      thresh= 3.015E-07 alpha_mix =  0.700 |ddv_scf|^2 =  7.514E-13

     Pert. #  1: Fermi energy shift (Ry) =    -8.8064E-03     8.0779E-28

      iter #   9 total cpu time :  3908.1 secs   av.it.:  16.3
      thresh= 8.668E-08 alpha_mix =  0.700 |ddv_scf|^2 =  5.249E-14

     Pert. #  1: Fermi energy shift (Ry) =    -8.9233E-03     8.0779E-28

      iter #  10 total cpu time :  3928.1 secs   av.it.:  17.3
      thresh= 2.291E-08 alpha_mix =  0.700 |ddv_scf|^2 =  4.495E-14

     Pert. #  1: Fermi energy shift (Ry) =    -8.8558E-03     8.0779E-28

      iter #  11 total cpu time :  3948.5 secs   av.it.:  16.3
      thresh= 2.120E-08 alpha_mix =  0.700 |ddv_scf|^2 =  1.410E-15

     Pert. #  1: Fermi energy shift (Ry) =    -8.8846E-03     8.0779E-28

      iter #  12 total cpu time :  3966.8 secs   av.it.:  17.3
      thresh= 3.755E-09 alpha_mix =  0.700 |ddv_scf|^2 =  4.737E-17

     End of self-consistent calculation

     Convergence has been achieved 


     Representation #   9 mode #   9

     Self-consistent Calculation

     Pert. #  1: Fermi energy shift (Ry) =     7.0586E-23     1.4947E-44

      iter #   1 total cpu time :  4035.7 secs   av.it.:   6.9
      thresh= 1.000E-02 alpha_mix =  0.700 |ddv_scf|^2 =  1.503E-08

     Pert. #  1: Fermi energy shift (Ry) =     1.7647E-23     2.3915E-43

      iter #   2 total cpu time :  4065.2 secs   av.it.:  16.7
      thresh= 1.226E-05 alpha_mix =  0.700 |ddv_scf|^2 =  2.600E-10

     Pert. #  1: Fermi energy shift (Ry) =     5.2940E-23     2.3915E-43

      iter #   3 total cpu time :  4096.4 secs   av.it.:  17.0
      thresh= 1.612E-06 alpha_mix =  0.700 |ddv_scf|^2 =  7.605E-12

     Pert. #  1: Fermi energy shift (Ry) =     5.2940E-23    -2.9894E-44

      iter #   4 total cpu time :  4135.3 secs   av.it.:  16.4
      thresh= 2.758E-07 alpha_mix =  0.700 |ddv_scf|^2 =  1.427E-13

     Pert. #  1: Fermi energy shift (Ry) =     5.2940E-23    -3.7368E-45

      iter #   5 total cpu time :  4181.6 secs   av.it.:  16.0
      thresh= 3.777E-08 alpha_mix =  0.700 |ddv_scf|^2 =  1.818E-15

     Pert. #  1: Fermi energy shift (Ry) =     5.2940E-23     1.8684E-45

      iter #   6 total cpu time :  4234.0 secs   av.it.:  16.0
      thresh= 4.264E-09 alpha_mix =  0.700 |ddv_scf|^2 =  3.457E-17

     End of self-consistent calculation

     Convergence has been achieved 


     Representation #  10 mode #  10

     Self-consistent Calculation

     Pert. #  1: Fermi energy shift (Ry) =    -1.4117E-22     0.0000E+00

      iter #   1 total cpu time :  4350.5 secs   av.it.:   6.6
      thresh= 1.000E-02 alpha_mix =  0.700 |ddv_scf|^2 =  1.352E-08

     Pert. #  1: Fermi energy shift (Ry) =     0.0000E+00     0.0000E+00

      iter #   2 total cpu time :  4385.3 secs   av.it.:  16.9
      thresh= 1.163E-05 alpha_mix =  0.700 |ddv_scf|^2 =  1.796E-10

     Pert. #  1: Fermi energy shift (Ry) =    -7.0586E-23     0.0000E+00

      iter #   3 total cpu time :  4453.9 secs   av.it.:  17.0
      thresh= 1.340E-06 alpha_mix =  0.700 |ddv_scf|^2 =  6.484E-12

     Pert. #  1: Fermi energy shift (Ry) =    -7.0586E-23     0.0000E+00

      iter #   4 total cpu time :  4499.5 secs   av.it.:  16.4
      thresh= 2.546E-07 alpha_mix =  0.700 |ddv_scf|^2 =  1.815E-13

     Pert. #  1: Fermi energy shift (Ry) =    -7.0586E-23     0.0000E+00

      iter #   5 total cpu time :  4543.4 secs   av.it.:  16.0
      thresh= 4.261E-08 alpha_mix =  0.700 |ddv_scf|^2 =  2.010E-15

     Pert. #  1: Fermi energy shift (Ry) =    -7.0586E-23     0.0000E+00

      iter #   6 total cpu time :  4565.8 secs   av.it.:  16.0
      thresh= 4.484E-09 alpha_mix =  0.700 |ddv_scf|^2 =  5.165E-17

     End of self-consistent calculation

     Convergence has been achieved 


     Representation #  11 mode #  11

     Self-consistent Calculation

     Pert. #  1: Fermi energy shift (Ry) =     5.6469E-22    -2.9894E-44

      iter #   1 total cpu time :  4658.5 secs   av.it.:   7.0
      thresh= 1.000E-02 alpha_mix =  0.700 |ddv_scf|^2 =  2.119E-08

     Pert. #  1: Fermi energy shift (Ry) =     1.7647E-22    -5.9789E-44

      iter #   2 total cpu time :  4728.9 secs   av.it.:  16.6
      thresh= 1.456E-05 alpha_mix =  0.700 |ddv_scf|^2 =  1.610E-09

     Pert. #  1: Fermi energy shift (Ry) =     3.5293E-22    -1.1958E-43

      iter #   3 total cpu time :  4764.2 secs   av.it.:  16.4
      thresh= 4.012E-06 alpha_mix =  0.700 |ddv_scf|^2 =  5.411E-12

     Pert. #  1: Fermi energy shift (Ry) =     3.5293E-22    -2.9894E-44

      iter #   4 total cpu time :  4801.2 secs   av.it.:  16.0
      thresh= 2.326E-07 alpha_mix =  0.700 |ddv_scf|^2 =  6.359E-14

     Pert. #  1: Fermi energy shift (Ry) =     3.5293E-22    -2.9894E-44

      iter #   5 total cpu time :  4850.8 secs   av.it.:  16.1
      thresh= 2.522E-08 alpha_mix =  0.700 |ddv_scf|^2 =  1.802E-15

     Pert. #  1: Fermi energy shift (Ry) =     3.5293E-22    -2.9894E-44

      iter #   6 total cpu time :  4864.8 secs   av.it.:  16.7
      thresh= 4.245E-09 alpha_mix =  0.700 |ddv_scf|^2 =  3.350E-17

     End of self-consistent calculation

     Convergence has been achieved 


     Representation #  12 modes #  12  13

     Self-consistent Calculation

     Pert. #  1: Fermi energy shift (Ry) =     1.0842E-19     1.1958E-43
     Pert. #  2: Fermi energy shift (Ry) =     9.0350E-21    -3.5873E-43

      iter #   1 total cpu time :  4963.2 secs   av.it.:   7.0
      thresh= 1.000E-02 alpha_mix =  0.700 |ddv_scf|^2 =  4.478E-09

     Pert. #  1: Fermi energy shift (Ry) =    -5.7824E-19    -2.2720E-42
     Pert. #  2: Fermi energy shift (Ry) =     7.2280E-19     2.3915E-42

      iter #   2 total cpu time :  5000.8 secs   av.it.:  19.3
      thresh= 6.692E-06 alpha_mix =  0.700 |ddv_scf|^2 =  2.913E-08

     Pert. #  1: Fermi energy shift (Ry) =     1.4456E-19     2.9894E-44
     Pert. #  2: Fermi energy shift (Ry) =    -9.3964E-19     2.9894E-43

      iter #   3 total cpu time :  5060.7 secs   av.it.:  16.9
      thresh= 1.707E-05 alpha_mix =  0.700 |ddv_scf|^2 =  4.477E-09

     Pert. #  1: Fermi energy shift (Ry) =    -1.4456E-19     2.9894E-43
     Pert. #  2: Fermi energy shift (Ry) =     1.2649E-19    -4.6336E-43

      iter #   4 total cpu time :  5113.5 secs   av.it.:  16.6
      thresh= 6.691E-06 alpha_mix =  0.700 |ddv_scf|^2 =  1.649E-11

     Pert. #  1: Fermi energy shift (Ry) =    -6.3245E-20     2.2421E-43
     Pert. #  2: Fermi energy shift (Ry) =    -7.2280E-20    -2.9894E-44

      iter #   5 total cpu time :  5151.0 secs   av.it.:  18.9
      thresh= 4.060E-07 alpha_mix =  0.700 |ddv_scf|^2 =  2.341E-12

     Pert. #  1: Fermi energy shift (Ry) =    -9.0350E-20     1.4947E-43
     Pert. #  2: Fermi energy shift (Ry) =    -8.1315E-20    -1.6442E-43

      iter #   6 total cpu time :  5185.0 secs   av.it.:  18.4
      thresh= 1.530E-07 alpha_mix =  0.700 |ddv_scf|^2 =  1.574E-13

     Pert. #  1: Fermi energy shift (Ry) =    -1.4456E-19     1.4947E-43
     Pert. #  2: Fermi energy shift (Ry) =     7.2280E-20    -2.9894E-44

      iter #   7 total cpu time :  5225.4 secs   av.it.:  18.5
      thresh= 3.967E-08 alpha_mix =  0.700 |ddv_scf|^2 =  6.885E-15

     Pert. #  1: Fermi energy shift (Ry) =    -9.0350E-20     1.1958E-43
     Pert. #  2: Fermi energy shift (Ry) =     7.2280E-20    -3.2884E-43

      iter #   8 total cpu time :  5253.6 secs   av.it.:  19.4
      thresh= 8.297E-09 alpha_mix =  0.700 |ddv_scf|^2 =  5.140E-15

     Pert. #  1: Fermi energy shift (Ry) =    -1.2649E-19     1.1958E-43
     Pert. #  2: Fermi energy shift (Ry) =     2.7105E-20    -3.2884E-43

      iter #   9 total cpu time :  5285.7 secs   av.it.:  18.0
      thresh= 7.169E-09 alpha_mix =  0.700 |ddv_scf|^2 =  5.319E-16

     Pert. #  1: Fermi energy shift (Ry) =    -1.0842E-19     1.1958E-43
     Pert. #  2: Fermi energy shift (Ry) =     3.6140E-20    -3.2884E-43

      iter #  10 total cpu time :  5318.1 secs   av.it.:  18.0
      thresh= 2.306E-09 alpha_mix =  0.700 |ddv_scf|^2 =  5.849E-16

     Pert. #  1: Fermi energy shift (Ry) =    -2.1684E-19     1.1958E-43
     Pert. #  2: Fermi energy shift (Ry) =    -1.1746E-19    -3.2884E-43

      iter #  11 total cpu time :  5354.2 secs   av.it.:  17.6
      thresh= 2.418E-09 alpha_mix =  0.700 |ddv_scf|^2 =  4.130E-17

     End of self-consistent calculation

     Convergence has been achieved 


     Representation #  13 modes #  14  15

     Self-consistent Calculation

     Pert. #  1: Fermi energy shift (Ry) =    -5.7824E-19     1.1958E-43
     Pert. #  2: Fermi energy shift (Ry) =     8.6736E-19    -1.0463E-43

      iter #   1 total cpu time :  5440.7 secs   av.it.:   8.0
      thresh= 1.000E-02 alpha_mix =  0.700 |ddv_scf|^2 =  3.422E-08

     Pert. #  1: Fermi energy shift (Ry) =     5.7824E-19     2.9894E-44
     Pert. #  2: Fermi energy shift (Ry) =    -8.6736E-19     0.0000E+00

      iter #   2 total cpu time :  5490.7 secs   av.it.:  19.1
      thresh= 1.850E-05 alpha_mix =  0.700 |ddv_scf|^2 =  5.479E-08

     Pert. #  1: Fermi energy shift (Ry) =    -2.3130E-18     7.1746E-43
     Pert. #  2: Fermi energy shift (Ry) =     8.6736E-19    -5.9789E-44

      iter #   3 total cpu time :  5542.2 secs   av.it.:  18.1
      thresh= 2.341E-05 alpha_mix =  0.700 |ddv_scf|^2 =  7.786E-08

     Pert. #  1: Fermi energy shift (Ry) =    -9.0350E-21     7.4736E-44
     Pert. #  2: Fermi energy shift (Ry) =    -3.1623E-20    -5.9789E-44

      iter #   4 total cpu time :  5593.5 secs   av.it.:  16.2
      thresh= 2.790E-05 alpha_mix =  0.700 |ddv_scf|^2 =  3.847E-10

     Pert. #  1: Fermi energy shift (Ry) =     0.0000E+00     1.1958E-43
     Pert. #  2: Fermi energy shift (Ry) =     2.7105E-20    -1.0463E-43

      iter #   5 total cpu time :  5646.6 secs   av.it.:  18.3
      thresh= 1.961E-06 alpha_mix =  0.700 |ddv_scf|^2 =  1.138E-11

     Pert. #  1: Fermi energy shift (Ry) =     9.0350E-21     1.1958E-43
     Pert. #  2: Fermi energy shift (Ry) =    -5.8728E-20    -1.0463E-43

      iter #   6 total cpu time :  5694.5 secs   av.it.:  18.0
      thresh= 3.373E-07 alpha_mix =  0.700 |ddv_scf|^2 =  4.102E-13

     Pert. #  1: Fermi energy shift (Ry) =     4.5175E-20     1.1958E-43
     Pert. #  2: Fermi energy shift (Ry) =     2.2588E-20    -1.0463E-43

      iter #   7 total cpu time :  5732.3 secs   av.it.:  18.7
      thresh= 6.405E-08 alpha_mix =  0.700 |ddv_scf|^2 =  9.107E-14

     Pert. #  1: Fermi energy shift (Ry) =     3.6140E-20     1.1958E-43
     Pert. #  2: Fermi energy shift (Ry) =     3.1623E-20    -1.0463E-43

      iter #   8 total cpu time :  5762.5 secs   av.it.:  18.9
      thresh= 3.018E-08 alpha_mix =  0.700 |ddv_scf|^2 =  4.717E-14

     Pert. #  1: Fermi energy shift (Ry) =     9.0350E-21     1.1958E-43
     Pert. #  2: Fermi energy shift (Ry) =    -6.7763E-20    -1.0463E-43

      iter #   9 total cpu time :  5795.7 secs   av.it.:  18.3
      thresh= 2.172E-08 alpha_mix =  0.700 |ddv_scf|^2 =  2.170E-15

     Pert. #  1: Fermi energy shift (Ry) =    -9.0350E-21     1.1958E-43
     Pert. #  2: Fermi energy shift (Ry) =     2.2588E-20    -1.0463E-43

      iter #  10 total cpu time :  5831.0 secs   av.it.:  18.7
      thresh= 4.658E-09 alpha_mix =  0.700 |ddv_scf|^2 =  5.018E-15

     Pert. #  1: Fermi energy shift (Ry) =     0.0000E+00     1.1958E-43
     Pert. #  2: Fermi energy shift (Ry) =    -1.3553E-20    -1.0463E-43

      iter #  11 total cpu time :  5868.7 secs   av.it.:  17.5
      thresh= 7.084E-09 alpha_mix =  0.700 |ddv_scf|^2 =  2.593E-16

     Pert. #  1: Fermi energy shift (Ry) =     0.0000E+00     1.1958E-43
     Pert. #  2: Fermi energy shift (Ry) =    -3.1623E-20    -1.0463E-43

      iter #  12 total cpu time :  5897.5 secs   av.it.:  17.9
      thresh= 1.610E-09 alpha_mix =  0.700 |ddv_scf|^2 =  1.873E-18

     End of self-consistent calculation

     Convergence has been achieved 


     Representation #  14 modes #  16  17

     Self-consistent Calculation

     Pert. #  1: Fermi energy shift (Ry) =     0.0000E+00    -5.6052E-45
     Pert. #  2: Fermi energy shift (Ry) =    -5.7824E-19    -7.0065E-46

      iter #   1 total cpu time :  5988.2 secs   av.it.:   7.0
      thresh= 1.000E-02 alpha_mix =  0.700 |ddv_scf|^2 =  1.471E-08

     Pert. #  1: Fermi energy shift (Ry) =    -5.7824E-19    -1.4349E-42
     Pert. #  2: Fermi energy shift (Ry) =    -1.7347E-18    -1.4349E-42

      iter #   2 total cpu time :  6041.3 secs   av.it.:  19.2
      thresh= 1.213E-05 alpha_mix =  0.700 |ddv_scf|^2 =  1.533E-07

     Pert. #  1: Fermi energy shift (Ry) =     5.7824E-19     9.5662E-43
     Pert. #  2: Fermi energy shift (Ry) =     7.2280E-20    -2.3915E-43

      iter #   3 total cpu time :  6094.5 secs   av.it.:  16.5
      thresh= 3.915E-05 alpha_mix =  0.700 |ddv_scf|^2 =  9.969E-09

     Pert. #  1: Fermi energy shift (Ry) =     1.8070E-20    -5.9789E-44
     Pert. #  2: Fermi energy shift (Ry) =     2.2588E-20    -3.2884E-43

      iter #   4 total cpu time :  6150.8 secs   av.it.:  16.9
      thresh= 9.985E-06 alpha_mix =  0.700 |ddv_scf|^2 =  1.275E-10

     Pert. #  1: Fermi energy shift (Ry) =     4.5175E-21     0.0000E+00
     Pert. #  2: Fermi energy shift (Ry) =    -2.0329E-20    -7.4736E-45

      iter #   5 total cpu time :  6294.3 secs   av.it.:  18.6
      thresh= 1.129E-06 alpha_mix =  0.700 |ddv_scf|^2 =  1.100E-11

     Pert. #  1: Fermi energy shift (Ry) =    -2.7105E-20     1.8684E-45
     Pert. #  2: Fermi energy shift (Ry) =    -8.5833E-20    -3.1763E-44

      iter #   6 total cpu time :  6358.0 secs   av.it.:  18.3
      thresh= 3.316E-07 alpha_mix =  0.700 |ddv_scf|^2 =  5.411E-13

     Pert. #  1: Fermi energy shift (Ry) =     4.5175E-21     1.1210E-44
     Pert. #  2: Fermi energy shift (Ry) =    -6.3245E-20    -4.8578E-44

      iter #   7 total cpu time :  6389.6 secs   av.it.:  18.4
      thresh= 7.356E-08 alpha_mix =  0.700 |ddv_scf|^2 =  1.096E-13

     Pert. #  1: Fermi energy shift (Ry) =    -1.8070E-20    -7.4736E-45
     Pert. #  2: Fermi energy shift (Ry) =     4.5175E-21     1.3079E-44

      iter #   8 total cpu time :  6430.9 secs   av.it.:  18.5
      thresh= 3.311E-08 alpha_mix =  0.700 |ddv_scf|^2 =  1.587E-14

     Pert. #  1: Fermi energy shift (Ry) =    -2.7105E-20     0.0000E+00
     Pert. #  2: Fermi energy shift (Ry) =    -3.6140E-20    -2.8026E-44

      iter #   9 total cpu time :  6461.2 secs   av.it.:  18.7
      thresh= 1.260E-08 alpha_mix =  0.700 |ddv_scf|^2 =  9.095E-15

     Pert. #  1: Fermi energy shift (Ry) =    -1.8070E-20     7.4736E-45
     Pert. #  2: Fermi energy shift (Ry) =     0.0000E+00    -2.4289E-44

      iter #  10 total cpu time :  6490.6 secs   av.it.:  17.9
      thresh= 9.537E-09 alpha_mix =  0.700 |ddv_scf|^2 =  2.258E-16

     Pert. #  1: Fermi energy shift (Ry) =    -2.7105E-20    -7.4736E-45
     Pert. #  2: Fermi energy shift (Ry) =     9.0350E-21    -4.2973E-44

      iter #  11 total cpu time :  6530.5 secs   av.it.:  18.9
      thresh= 1.503E-09 alpha_mix =  0.700 |ddv_scf|^2 =  4.554E-17

     End of self-consistent calculation

     Convergence has been achieved 


     Representation #  15 modes #  18  19

     Self-consistent Calculation

     Pert. #  1: Fermi energy shift (Ry) =    -2.0238E-18     1.3079E-44
     Pert. #  2: Fermi energy shift (Ry) =     2.7466E-18     1.7049E-44

      iter #   1 total cpu time :  6697.7 secs   av.it.:   6.7
      thresh= 1.000E-02 alpha_mix =  0.700 |ddv_scf|^2 =  2.093E-08

     Pert. #  1: Fermi energy shift (Ry) =     3.4694E-18     7.1746E-43
     Pert. #  2: Fermi energy shift (Ry) =    -2.3130E-18     2.3318E-42

      iter #   2 total cpu time :  6750.2 secs   av.it.:  19.2
      thresh= 1.447E-05 alpha_mix =  0.700 |ddv_scf|^2 =  2.889E-07

     Pert. #  1: Fermi energy shift (Ry) =    -1.4456E-18     1.1958E-43
     Pert. #  2: Fermi energy shift (Ry) =     5.7824E-19     4.7831E-43

      iter #   3 total cpu time :  6786.5 secs   av.it.:  16.2
      thresh= 5.375E-05 alpha_mix =  0.700 |ddv_scf|^2 =  8.204E-09

     Pert. #  1: Fermi energy shift (Ry) =    -2.2588E-20     4.4842E-44
     Pert. #  2: Fermi energy shift (Ry) =     9.4868E-20     5.4184E-44

      iter #   4 total cpu time :  6830.1 secs   av.it.:  16.8
      thresh= 9.057E-06 alpha_mix =  0.700 |ddv_scf|^2 =  3.235E-11

     Pert. #  1: Fermi energy shift (Ry) =     1.8070E-20     1.3079E-44
     Pert. #  2: Fermi energy shift (Ry) =    -2.2588E-20     1.7049E-44

      iter #   5 total cpu time :  6886.0 secs   av.it.:  18.6
      thresh= 5.688E-07 alpha_mix =  0.700 |ddv_scf|^2 =  3.778E-12

     Pert. #  1: Fermi energy shift (Ry) =    -2.9646E-21     7.4736E-45
     Pert. #  2: Fermi energy shift (Ry) =     8.4703E-22     1.1677E-44

      iter #   6 total cpu time :  6938.8 secs   av.it.:  18.5
      thresh= 1.944E-07 alpha_mix =  0.700 |ddv_scf|^2 =  5.105E-13

     Pert. #  1: Fermi energy shift (Ry) =     1.1294E-21     7.4736E-45
     Pert. #  2: Fermi energy shift (Ry) =    -1.1294E-21     1.1677E-44

      iter #   7 total cpu time :  6968.3 secs   av.it.:  18.7
      thresh= 7.145E-08 alpha_mix =  0.700 |ddv_scf|^2 =  8.614E-14

     Pert. #  1: Fermi energy shift (Ry) =    -1.1294E-21     7.4736E-45
     Pert. #  2: Fermi energy shift (Ry) =     3.3881E-21     1.1677E-44

      iter #   8 total cpu time :  7023.4 secs   av.it.:  18.6
      thresh= 2.935E-08 alpha_mix =  0.700 |ddv_scf|^2 =  8.711E-15

     Pert. #  1: Fermi energy shift (Ry) =     7.9056E-21     7.4736E-45
     Pert. #  2: Fermi energy shift (Ry) =     2.2588E-21     1.1677E-44

      iter #   9 total cpu time :  7058.4 secs   av.it.:  18.9
      thresh= 9.333E-09 alpha_mix =  0.700 |ddv_scf|^2 =  9.717E-15

     Pert. #  1: Fermi energy shift (Ry) =     3.3881E-21     7.4736E-45
     Pert. #  2: Fermi energy shift (Ry) =    -1.1294E-20     1.1677E-44

      iter #  10 total cpu time :  7101.8 secs   av.it.:  17.7
      thresh= 9.858E-09 alpha_mix =  0.700 |ddv_scf|^2 =  2.211E-16

     Pert. #  1: Fermi energy shift (Ry) =     2.2588E-21     7.4736E-45
     Pert. #  2: Fermi energy shift (Ry) =     0.0000E+00     1.1677E-44

      iter #  11 total cpu time :  7135.6 secs   av.it.:  18.4
      thresh= 1.487E-09 alpha_mix =  0.700 |ddv_scf|^2 =  1.632E-17

     End of self-consistent calculation

     Convergence has been achieved 


     Representation #  16 modes #  20  21

     Self-consistent Calculation

     Pert. #  1: Fermi energy shift (Ry) =     1.4456E-19     1.4947E-43
     Pert. #  2: Fermi energy shift (Ry) =     0.0000E+00     7.4736E-44

      iter #   1 total cpu time :  7336.0 secs   av.it.:   7.7
      thresh= 1.000E-02 alpha_mix =  0.700 |ddv_scf|^2 =  1.518E-08

     Pert. #  1: Fermi energy shift (Ry) =    -1.1565E-18    -5.9789E-44
     Pert. #  2: Fermi energy shift (Ry) =    -5.7824E-19    -5.9789E-44

      iter #   2 total cpu time :  7390.1 secs   av.it.:  19.1
      thresh= 1.232E-05 alpha_mix =  0.700 |ddv_scf|^2 =  5.765E-08

     Pert. #  1: Fermi energy shift (Ry) =    -2.8912E-19     5.9789E-44
     Pert. #  2: Fermi energy shift (Ry) =     1.7347E-18     7.4736E-44

      iter #   3 total cpu time :  7438.6 secs   av.it.:  17.2
      thresh= 2.401E-05 alpha_mix =  0.700 |ddv_scf|^2 =  3.459E-08

     Pert. #  1: Fermi energy shift (Ry) =     9.0350E-20     1.7189E-43
     Pert. #  2: Fermi energy shift (Ry) =     3.6140E-20    -1.7189E-43

      iter #   4 total cpu time :  7516.1 secs   av.it.:  16.6
      thresh= 1.860E-05 alpha_mix =  0.700 |ddv_scf|^2 =  1.107E-11

     Pert. #  1: Fermi energy shift (Ry) =     3.2526E-19     1.0463E-43
     Pert. #  2: Fermi energy shift (Ry) =     9.0350E-20     4.4842E-44

      iter #   5 total cpu time :  7571.7 secs   av.it.:  19.2
      thresh= 3.326E-07 alpha_mix =  0.700 |ddv_scf|^2 =  1.882E-12

     Pert. #  1: Fermi energy shift (Ry) =    -7.2280E-20     1.3452E-43
     Pert. #  2: Fermi energy shift (Ry) =    -1.8070E-20     1.4947E-44

      iter #   6 total cpu time :  7663.9 secs   av.it.:  19.0
      thresh= 1.372E-07 alpha_mix =  0.700 |ddv_scf|^2 =  6.815E-13

     Pert. #  1: Fermi energy shift (Ry) =     1.4456E-19     8.9683E-44
     Pert. #  2: Fermi energy shift (Ry) =    -2.8912E-19    -1.4947E-44

      iter #   7 total cpu time :  7699.9 secs   av.it.:  18.4
      thresh= 8.255E-08 alpha_mix =  0.700 |ddv_scf|^2 =  2.234E-14

     Pert. #  1: Fermi energy shift (Ry) =     2.5298E-19     1.3452E-43
     Pert. #  2: Fermi energy shift (Ry) =     2.5298E-19     1.4947E-44

      iter #   8 total cpu time :  7728.9 secs   av.it.:  18.8
      thresh= 1.495E-08 alpha_mix =  0.700 |ddv_scf|^2 =  3.484E-15

     Pert. #  1: Fermi energy shift (Ry) =     1.0842E-19     1.3452E-43
     Pert. #  2: Fermi energy shift (Ry) =     1.8070E-19     1.4947E-44

      iter #   9 total cpu time :  7756.9 secs   av.it.:  19.0
      thresh= 5.902E-09 alpha_mix =  0.700 |ddv_scf|^2 =  5.004E-15

     Pert. #  1: Fermi energy shift (Ry) =     2.8912E-19     1.3452E-43
     Pert. #  2: Fermi energy shift (Ry) =    -3.6140E-20     1.4947E-44

      iter #  10 total cpu time :  7787.1 secs   av.it.:  17.9
      thresh= 7.074E-09 alpha_mix =  0.700 |ddv_scf|^2 =  5.048E-15

     Pert. #  1: Fermi energy shift (Ry) =     2.1684E-19     1.3452E-43
     Pert. #  2: Fermi energy shift (Ry) =     3.6140E-20     1.4947E-44

      iter #  11 total cpu time :  7832.6 secs   av.it.:  17.1
      thresh= 7.105E-09 alpha_mix =  0.700 |ddv_scf|^2 =  1.137E-17

     End of self-consistent calculation

     Convergence has been achieved 


     Representation #  17 modes #  22  23

     Self-consistent Calculation

     Pert. #  1: Fermi energy shift (Ry) =    -5.7824E-19     2.9894E-44
     Pert. #  2: Fermi energy shift (Ry) =    -1.4456E-19     2.9894E-44

      iter #   1 total cpu time :  8063.2 secs   av.it.:   7.0
      thresh= 1.000E-02 alpha_mix =  0.700 |ddv_scf|^2 =  1.076E-08

     Pert. #  1: Fermi energy shift (Ry) =    -1.1565E-18     1.7937E-43
     Pert. #  2: Fermi energy shift (Ry) =     5.7824E-19    -1.7937E-43

      iter #   2 total cpu time :  8146.1 secs   av.it.:  19.4
      thresh= 1.037E-05 alpha_mix =  0.700 |ddv_scf|^2 =  1.185E-07

     Pert. #  1: Fermi energy shift (Ry) =    -1.4456E-19     4.7831E-43
     Pert. #  2: Fermi energy shift (Ry) =     9.3964E-19     0.0000E+00

      iter #   3 total cpu time :  8217.3 secs   av.it.:  16.4
      thresh= 3.443E-05 alpha_mix =  0.700 |ddv_scf|^2 =  5.339E-09

     Pert. #  1: Fermi energy shift (Ry) =     0.0000E+00     5.9789E-44
     Pert. #  2: Fermi energy shift (Ry) =     3.6140E-19     1.4947E-43

      iter #   4 total cpu time :  8301.4 secs   av.it.:  16.9
      thresh= 7.307E-06 alpha_mix =  0.700 |ddv_scf|^2 =  5.362E-11

     Pert. #  1: Fermi energy shift (Ry) =    -3.9754E-19    -7.4736E-44
     Pert. #  2: Fermi energy shift (Ry) =     5.0596E-19     7.4736E-44

      iter #   5 total cpu time :  8362.5 secs   av.it.:  18.9
      thresh= 7.322E-07 alpha_mix =  0.700 |ddv_scf|^2 =  9.729E-12

     Pert. #  1: Fermi energy shift (Ry) =     0.0000E+00    -2.9894E-44
     Pert. #  2: Fermi energy shift (Ry) =     3.6140E-20     1.1958E-43

      iter #   6 total cpu time :  8392.2 secs   av.it.:  18.0
      thresh= 3.119E-07 alpha_mix =  0.700 |ddv_scf|^2 =  3.830E-13

     Pert. #  1: Fermi energy shift (Ry) =    -2.8912E-19     4.4842E-44
     Pert. #  2: Fermi energy shift (Ry) =     0.0000E+00     8.9683E-44

      iter #   7 total cpu time :  8424.9 secs   av.it.:  18.9
      thresh= 6.189E-08 alpha_mix =  0.700 |ddv_scf|^2 =  1.285E-13

     Pert. #  1: Fermi energy shift (Ry) =     7.2280E-20     4.4842E-44
     Pert. #  2: Fermi energy shift (Ry) =    -4.6982E-19     8.9683E-44

      iter #   8 total cpu time :  8452.6 secs   av.it.:  18.5
      thresh= 3.585E-08 alpha_mix =  0.700 |ddv_scf|^2 =  3.056E-14

     Pert. #  1: Fermi energy shift (Ry) =     7.2280E-20     4.4842E-44
     Pert. #  2: Fermi energy shift (Ry) =    -6.5052E-19     8.9683E-44

      iter #   9 total cpu time :  8488.2 secs   av.it.:  18.6
      thresh= 1.748E-08 alpha_mix =  0.700 |ddv_scf|^2 =  2.107E-14

     Pert. #  1: Fermi energy shift (Ry) =     0.0000E+00     4.4842E-44
     Pert. #  2: Fermi energy shift (Ry) =     1.4456E-19     8.9683E-44

      iter #  10 total cpu time :  8520.0 secs   av.it.:  17.4
      thresh= 1.452E-08 alpha_mix =  0.700 |ddv_scf|^2 =  3.246E-16

     Pert. #  1: Fermi energy shift (Ry) =     0.0000E+00     4.4842E-44
     Pert. #  2: Fermi energy shift (Ry) =     2.1684E-19     8.9683E-44

      iter #  11 total cpu time :  8564.6 secs   av.it.:  19.6
      thresh= 1.802E-09 alpha_mix =  0.700 |ddv_scf|^2 =  2.861E-16

     Pert. #  1: Fermi energy shift (Ry) =    -1.4456E-19     4.4842E-44
     Pert. #  2: Fermi energy shift (Ry) =    -3.6140E-19     8.9683E-44

      iter #  12 total cpu time :  8600.7 secs   av.it.:  18.4
      thresh= 1.691E-09 alpha_mix =  0.700 |ddv_scf|^2 =  4.359E-17

     End of self-consistent calculation

     Convergence has been achieved 


     Representation #  18 modes #  24  25

     Self-consistent Calculation

     Pert. #  1: Fermi energy shift (Ry) =     1.4456E-19     1.4947E-44
     Pert. #  2: Fermi energy shift (Ry) =    -4.3368E-19    -7.4736E-45

      iter #   1 total cpu time :  8709.2 secs   av.it.:   7.0
      thresh= 1.000E-02 alpha_mix =  0.700 |ddv_scf|^2 =  2.275E-08

     Pert. #  1: Fermi energy shift (Ry) =    -1.1565E-18    -1.1958E-43
     Pert. #  2: Fermi energy shift (Ry) =     1.6769E-17     3.8863E-43

      iter #   2 total cpu time :  8755.3 secs   av.it.:  19.1
      thresh= 1.508E-05 alpha_mix =  0.700 |ddv_scf|^2 =  2.980E-07

     Pert. #  1: Fermi energy shift (Ry) =     0.0000E+00    -2.3915E-43
     Pert. #  2: Fermi energy shift (Ry) =    -1.8793E-18     2.9894E-43

      iter #   3 total cpu time :  8807.0 secs   av.it.:  16.2
      thresh= 5.459E-05 alpha_mix =  0.700 |ddv_scf|^2 =  1.087E-08

     Pert. #  1: Fermi energy shift (Ry) =     1.8070E-20    -1.1210E-44
     Pert. #  2: Fermi energy shift (Ry) =    -2.7105E-20    -2.6158E-44

      iter #   4 total cpu time :  8857.4 secs   av.it.:  16.9
      thresh= 1.042E-05 alpha_mix =  0.700 |ddv_scf|^2 =  1.307E-10

     Pert. #  1: Fermi energy shift (Ry) =    -2.7105E-20     0.0000E+00
     Pert. #  2: Fermi energy shift (Ry) =    -9.0350E-20     3.1763E-44

      iter #   5 total cpu time :  8902.7 secs   av.it.:  18.5
      thresh= 1.143E-06 alpha_mix =  0.700 |ddv_scf|^2 =  1.100E-11

     Pert. #  1: Fermi energy shift (Ry) =     1.8070E-20    -7.4736E-45
     Pert. #  2: Fermi energy shift (Ry) =    -2.9364E-20    -3.7368E-45

      iter #   6 total cpu time :  8940.5 secs   av.it.:  18.1
      thresh= 3.317E-07 alpha_mix =  0.700 |ddv_scf|^2 =  7.253E-13

     Pert. #  1: Fermi energy shift (Ry) =    -9.0350E-21     7.4736E-45
     Pert. #  2: Fermi energy shift (Ry) =    -4.0658E-20     3.7368E-44

      iter #   7 total cpu time :  8979.1 secs   av.it.:  18.4
      thresh= 8.516E-08 alpha_mix =  0.700 |ddv_scf|^2 =  1.322E-13

     Pert. #  1: Fermi energy shift (Ry) =    -9.0350E-21     7.4736E-45
     Pert. #  2: Fermi energy shift (Ry) =    -3.6140E-20     3.7368E-44

      iter #   8 total cpu time :  9009.3 secs   av.it.:  18.0
      thresh= 3.636E-08 alpha_mix =  0.700 |ddv_scf|^2 =  1.153E-14

     Pert. #  1: Fermi energy shift (Ry) =    -3.6140E-20     7.4736E-45
     Pert. #  2: Fermi energy shift (Ry) =     5.8728E-20     3.7368E-44

      iter #   9 total cpu time :  9044.2 secs   av.it.:  18.9
      thresh= 1.074E-08 alpha_mix =  0.700 |ddv_scf|^2 =  5.022E-15

     Pert. #  1: Fermi energy shift (Ry) =     2.7105E-20     7.4736E-45
     Pert. #  2: Fermi energy shift (Ry) =     2.7105E-20     3.7368E-44

      iter #  10 total cpu time :  9084.3 secs   av.it.:  18.3
      thresh= 7.087E-09 alpha_mix =  0.700 |ddv_scf|^2 =  1.497E-16

     Pert. #  1: Fermi energy shift (Ry) =     9.0350E-21     7.4736E-45
     Pert. #  2: Fermi energy shift (Ry) =    -1.8070E-20     3.7368E-44

      iter #  11 total cpu time :  9116.2 secs   av.it.:  18.1
      thresh= 1.223E-09 alpha_mix =  0.700 |ddv_scf|^2 =  1.837E-17

     End of self-consistent calculation

     Convergence has been achieved 


     Representation #  19 modes #  26  27

     Self-consistent Calculation

     Pert. #  1: Fermi energy shift (Ry) =     5.7824E-19     0.0000E+00
     Pert. #  2: Fermi energy shift (Ry) =     1.0119E-18     0.0000E+00

      iter #   1 total cpu time :  9278.7 secs   av.it.:   7.0
      thresh= 1.000E-02 alpha_mix =  0.700 |ddv_scf|^2 =  2.163E-08

     Pert. #  1: Fermi energy shift (Ry) =     3.4694E-18     0.0000E+00
     Pert. #  2: Fermi energy shift (Ry) =    -1.1565E-18     1.4947E-44

      iter #   2 total cpu time :  9326.7 secs   av.it.:  19.5
      thresh= 1.471E-05 alpha_mix =  0.700 |ddv_scf|^2 =  3.378E-07

     Pert. #  1: Fermi energy shift (Ry) =    -1.4456E-19     7.4736E-45
     Pert. #  2: Fermi energy shift (Ry) =     2.1684E-19     2.9894E-44

      iter #   3 total cpu time :  9425.2 secs   av.it.:  16.2
      thresh= 5.812E-05 alpha_mix =  0.700 |ddv_scf|^2 =  5.471E-09

     Pert. #  1: Fermi energy shift (Ry) =     2.2588E-21     0.0000E+00
     Pert. #  2: Fermi energy shift (Ry) =     4.7999E-21     4.6710E-46

      iter #   4 total cpu time :  9507.6 secs   av.it.:  16.9
      thresh= 7.397E-06 alpha_mix =  0.700 |ddv_scf|^2 =  4.121E-11

     Pert. #  1: Fermi energy shift (Ry) =    -9.0350E-20     0.0000E+00
     Pert. #  2: Fermi energy shift (Ry) =    -1.2649E-19     0.0000E+00

      iter #   5 total cpu time :  9558.8 secs   av.it.:  18.9
      thresh= 6.419E-07 alpha_mix =  0.700 |ddv_scf|^2 =  8.788E-12

     Pert. #  1: Fermi energy shift (Ry) =     0.0000E+00     0.0000E+00
     Pert. #  2: Fermi energy shift (Ry) =    -1.8070E-20     0.0000E+00

      iter #   6 total cpu time :  9603.5 secs   av.it.:  18.5
      thresh= 2.964E-07 alpha_mix =  0.700 |ddv_scf|^2 =  3.057E-13

     Pert. #  1: Fermi energy shift (Ry) =    -2.7105E-20     0.0000E+00
     Pert. #  2: Fermi energy shift (Ry) =     3.6140E-20     0.0000E+00

      iter #   7 total cpu time :  9658.8 secs   av.it.:  18.9
      thresh= 5.529E-08 alpha_mix =  0.700 |ddv_scf|^2 =  3.889E-14

     Pert. #  1: Fermi energy shift (Ry) =     0.0000E+00     0.0000E+00
     Pert. #  2: Fermi energy shift (Ry) =     8.1315E-20     0.0000E+00

      iter #   8 total cpu time :  9689.4 secs   av.it.:  17.9
      thresh= 1.972E-08 alpha_mix =  0.700 |ddv_scf|^2 =  2.160E-15

     Pert. #  1: Fermi energy shift (Ry) =     3.6140E-20     0.0000E+00
     Pert. #  2: Fermi energy shift (Ry) =     1.5360E-19     0.0000E+00

      iter #   9 total cpu time :  9728.3 secs   av.it.:  19.9
      thresh= 4.647E-09 alpha_mix =  0.700 |ddv_scf|^2 =  7.227E-15

     Pert. #  1: Fermi energy shift (Ry) =    -9.0350E-21     0.0000E+00
     Pert. #  2: Fermi energy shift (Ry) =     1.8070E-20     0.0000E+00

      iter #  10 total cpu time :  9772.1 secs   av.it.:  17.4
      thresh= 8.501E-09 alpha_mix =  0.700 |ddv_scf|^2 =  3.224E-17

     End of self-consistent calculation

     Convergence has been achieved 


     Representation #  20 modes #  28  29

     Self-consistent Calculation

     Pert. #  1: Fermi energy shift (Ry) =    -8.6736E-19    -1.1210E-43
     Pert. #  2: Fermi energy shift (Ry) =    -4.3368E-19    -4.4842E-44

      iter #   1 total cpu time :  9873.8 secs   av.it.:   7.6
      thresh= 1.000E-02 alpha_mix =  0.700 |ddv_scf|^2 =  1.992E-08

     Pert. #  1: Fermi energy shift (Ry) =     1.2721E-17    -2.9894E-43
     Pert. #  2: Fermi energy shift (Ry) =     1.1565E-18    -2.3915E-43

      iter #   2 total cpu time :  9956.0 secs   av.it.:  19.6
      thresh= 1.411E-05 alpha_mix =  0.700 |ddv_scf|^2 =  2.657E-07

     Pert. #  1: Fermi energy shift (Ry) =    -1.0119E-18    -2.9894E-43
     Pert. #  2: Fermi energy shift (Ry) =    -6.5052E-19    -2.3915E-43

      iter #   3 total cpu time : 10013.3 secs   av.it.:  16.3
      thresh= 5.154E-05 alpha_mix =  0.700 |ddv_scf|^2 =  8.526E-09

     Pert. #  1: Fermi energy shift (Ry) =    -7.2280E-20    -4.4842E-44
     Pert. #  2: Fermi energy shift (Ry) =    -5.4210E-20     0.0000E+00

      iter #   4 total cpu time : 10076.5 secs   av.it.:  17.6
      thresh= 9.234E-06 alpha_mix =  0.700 |ddv_scf|^2 =  1.933E-10

     Pert. #  1: Fermi energy shift (Ry) =     1.0842E-19    -1.1210E-43
     Pert. #  2: Fermi energy shift (Ry) =     6.3245E-20    -4.4842E-44

      iter #   5 total cpu time : 10181.3 secs   av.it.:  18.4
      thresh= 1.390E-06 alpha_mix =  0.700 |ddv_scf|^2 =  3.090E-12

     Pert. #  1: Fermi energy shift (Ry) =     4.5175E-20    -1.1210E-43
     Pert. #  2: Fermi energy shift (Ry) =    -3.6140E-20    -4.4842E-44

      iter #   6 total cpu time : 10233.2 secs   av.it.:  18.9
      thresh= 1.758E-07 alpha_mix =  0.700 |ddv_scf|^2 =  2.262E-13

     Pert. #  1: Fermi energy shift (Ry) =     9.9385E-20    -1.1210E-43
     Pert. #  2: Fermi energy shift (Ry) =     0.0000E+00    -4.4842E-44

      iter #   7 total cpu time : 10277.2 secs   av.it.:  19.0
      thresh= 4.756E-08 alpha_mix =  0.700 |ddv_scf|^2 =  3.457E-14

     Pert. #  1: Fermi energy shift (Ry) =    -3.6140E-20    -1.1210E-43
     Pert. #  2: Fermi energy shift (Ry) =    -1.8070E-20    -4.4842E-44

      iter #   8 total cpu time : 10321.0 secs   av.it.:  18.7
      thresh= 1.859E-08 alpha_mix =  0.700 |ddv_scf|^2 =  1.827E-15

     Pert. #  1: Fermi energy shift (Ry) =     9.0350E-20    -1.1210E-43
     Pert. #  2: Fermi energy shift (Ry) =    -3.6140E-20    -4.4842E-44

      iter #   9 total cpu time : 10358.9 secs   av.it.:  19.7
      thresh= 4.274E-09 alpha_mix =  0.700 |ddv_scf|^2 =  4.040E-15

     Pert. #  1: Fermi energy shift (Ry) =    -6.3245E-20    -1.1210E-43
     Pert. #  2: Fermi energy shift (Ry) =     9.0350E-21    -4.4842E-44

      iter #  10 total cpu time : 10396.7 secs   av.it.:  17.5
      thresh= 6.356E-09 alpha_mix =  0.700 |ddv_scf|^2 =  6.729E-16

     Pert. #  1: Fermi energy shift (Ry) =     9.0350E-21    -1.1210E-43
     Pert. #  2: Fermi energy shift (Ry) =     9.0350E-21    -4.4842E-44

      iter #  11 total cpu time : 10433.6 secs   av.it.:  17.8
      thresh= 2.594E-09 alpha_mix =  0.700 |ddv_scf|^2 =  3.262E-17

     End of self-consistent calculation

     Convergence has been achieved 


     Representation #  21 modes #  30  31

     Self-consistent Calculation

     Pert. #  1: Fermi energy shift (Ry) =    -1.8793E-18     0.0000E+00
     Pert. #  2: Fermi energy shift (Ry) =     0.0000E+00     7.4736E-45

      iter #   1 total cpu time : 10559.8 secs   av.it.:   7.0
      thresh= 1.000E-02 alpha_mix =  0.700 |ddv_scf|^2 =  1.694E-08

     Pert. #  1: Fermi energy shift (Ry) =     7.5171E-18    -3.5873E-43
     Pert. #  2: Fermi energy shift (Ry) =     1.7347E-18    -1.4947E-43

      iter #   2 total cpu time : 10605.3 secs   av.it.:  19.2
      thresh= 1.301E-05 alpha_mix =  0.700 |ddv_scf|^2 =  2.334E-07

     Pert. #  1: Fermi energy shift (Ry) =    -8.6736E-19     0.0000E+00
     Pert. #  2: Fermi energy shift (Ry) =     0.0000E+00    -2.3915E-43

      iter #   3 total cpu time : 10646.5 secs   av.it.:  16.2
      thresh= 4.831E-05 alpha_mix =  0.700 |ddv_scf|^2 =  6.199E-09

     Pert. #  1: Fermi energy shift (Ry) =    -4.5175E-20    -2.9894E-44
     Pert. #  2: Fermi energy shift (Ry) =    -1.8070E-20     5.9789E-44

      iter #   4 total cpu time : 10706.3 secs   av.it.:  16.9
      thresh= 7.873E-06 alpha_mix =  0.700 |ddv_scf|^2 =  6.728E-11

     Pert. #  1: Fermi energy shift (Ry) =     2.7105E-20    -2.9894E-44
     Pert. #  2: Fermi energy shift (Ry) =    -4.5175E-21     5.2315E-44

      iter #   5 total cpu time : 10743.4 secs   av.it.:  18.7
      thresh= 8.203E-07 alpha_mix =  0.700 |ddv_scf|^2 =  7.930E-12

     Pert. #  1: Fermi energy shift (Ry) =     1.3553E-19    -5.2315E-44
     Pert. #  2: Fermi energy shift (Ry) =    -9.0350E-21     2.9894E-44

      iter #   6 total cpu time : 10777.9 secs   av.it.:  18.4
      thresh= 2.816E-07 alpha_mix =  0.700 |ddv_scf|^2 =  6.769E-13

     Pert. #  1: Fermi energy shift (Ry) =     6.3245E-20    -2.9894E-44
     Pert. #  2: Fermi energy shift (Ry) =     4.9693E-20     4.1105E-44

      iter #   7 total cpu time : 10813.6 secs   av.it.:  18.9
      thresh= 8.227E-08 alpha_mix =  0.700 |ddv_scf|^2 =  2.159E-13

     Pert. #  1: Fermi energy shift (Ry) =    -4.5175E-20    -2.9894E-44
     Pert. #  2: Fermi energy shift (Ry) =    -7.2280E-20     4.1105E-44

      iter #   8 total cpu time : 10842.1 secs   av.it.:  17.8
      thresh= 4.647E-08 alpha_mix =  0.700 |ddv_scf|^2 =  4.474E-15

     Pert. #  1: Fermi energy shift (Ry) =     2.7105E-20    -2.9894E-44
     Pert. #  2: Fermi energy shift (Ry) =    -1.3553E-20     4.1105E-44

      iter #   9 total cpu time : 10889.8 secs   av.it.:  19.3
      thresh= 6.689E-09 alpha_mix =  0.700 |ddv_scf|^2 =  1.976E-15

     Pert. #  1: Fermi energy shift (Ry) =     1.3553E-19    -2.9894E-44
     Pert. #  2: Fermi energy shift (Ry) =    -4.5175E-20     4.1105E-44

      iter #  10 total cpu time : 10927.0 secs   av.it.:  18.3
      thresh= 4.445E-09 alpha_mix =  0.700 |ddv_scf|^2 =  2.575E-17

     End of self-consistent calculation

     Convergence has been achieved 


     Representation #  22 modes #  32  33

     Self-consistent Calculation

     Pert. #  1: Fermi energy shift (Ry) =     0.0000E+00    -1.4947E-44
     Pert. #  2: Fermi energy shift (Ry) =     4.3368E-19     5.2315E-44

      iter #   1 total cpu time : 11035.7 secs   av.it.:   7.4
      thresh= 1.000E-02 alpha_mix =  0.700 |ddv_scf|^2 =  4.501E-08

     Pert. #  1: Fermi energy shift (Ry) =    -6.9389E-18     0.0000E+00
     Pert. #  2: Fermi energy shift (Ry) =    -5.7824E-18     1.1958E-42

      iter #   2 total cpu time : 11102.7 secs   av.it.:  19.3
      thresh= 2.122E-05 alpha_mix =  0.700 |ddv_scf|^2 =  7.543E-07

     Pert. #  1: Fermi energy shift (Ry) =     0.0000E+00     0.0000E+00
     Pert. #  2: Fermi energy shift (Ry) =     2.8912E-19    -4.7831E-43

      iter #   3 total cpu time : 11143.5 secs   av.it.:  16.2
      thresh= 8.685E-05 alpha_mix =  0.700 |ddv_scf|^2 =  1.023E-08

     Pert. #  1: Fermi energy shift (Ry) =     3.6140E-20     7.4736E-45
     Pert. #  2: Fermi energy shift (Ry) =     9.0350E-21     5.2315E-44

      iter #   4 total cpu time : 11221.0 secs   av.it.:  16.9
      thresh= 1.011E-05 alpha_mix =  0.700 |ddv_scf|^2 =  6.033E-11

     Pert. #  1: Fermi energy shift (Ry) =    -7.2280E-20     7.4736E-45
     Pert. #  2: Fermi energy shift (Ry) =    -1.0842E-19     0.0000E+00

      iter #   5 total cpu time : 11282.8 secs   av.it.:  18.6
      thresh= 7.767E-07 alpha_mix =  0.700 |ddv_scf|^2 =  6.451E-12

     Pert. #  1: Fermi energy shift (Ry) =    -1.0842E-19     1.4947E-44
     Pert. #  2: Fermi energy shift (Ry) =    -5.4210E-20    -3.7368E-44

      iter #   6 total cpu time : 11317.0 secs   av.it.:  18.4
      thresh= 2.540E-07 alpha_mix =  0.700 |ddv_scf|^2 =  8.030E-13

     Pert. #  1: Fermi energy shift (Ry) =     7.2280E-20     1.4947E-44
     Pert. #  2: Fermi energy shift (Ry) =    -1.0842E-19    -3.7368E-44

      iter #   7 total cpu time : 11345.5 secs   av.it.:  18.9
      thresh= 8.961E-08 alpha_mix =  0.700 |ddv_scf|^2 =  1.825E-13

     Pert. #  1: Fermi energy shift (Ry) =     1.6263E-19     1.4947E-44
     Pert. #  2: Fermi energy shift (Ry) =    -6.3245E-20    -3.7368E-44

      iter #   8 total cpu time : 11383.2 secs   av.it.:  18.6
      thresh= 4.272E-08 alpha_mix =  0.700 |ddv_scf|^2 =  4.467E-15

     Pert. #  1: Fermi energy shift (Ry) =     0.0000E+00     1.4947E-44
     Pert. #  2: Fermi energy shift (Ry) =    -4.5175E-20    -3.7368E-44

      iter #   9 total cpu time : 11415.0 secs   av.it.:  19.3
      thresh= 6.684E-09 alpha_mix =  0.700 |ddv_scf|^2 =  5.672E-15

     Pert. #  1: Fermi energy shift (Ry) =     9.0350E-20     1.4947E-44
     Pert. #  2: Fermi energy shift (Ry) =    -1.3553E-19    -3.7368E-44

      iter #  10 total cpu time : 11445.6 secs   av.it.:  17.9
      thresh= 7.531E-09 alpha_mix =  0.700 |ddv_scf|^2 =  9.103E-17

     End of self-consistent calculation

     Convergence has been achieved 


     Representation #  23 mode #  34

     Self-consistent Calculation

     Pert. #  1: Fermi energy shift (Ry) =     0.0000E+00     1.5673E-38

      iter #   1 total cpu time : 11571.7 secs   av.it.:   7.0
      thresh= 1.000E-02 alpha_mix =  0.700 |ddv_scf|^2 =  2.129E-08

     Pert. #  1: Fermi energy shift (Ry) =     1.0771E-27     3.0612E-41

      iter #   2 total cpu time : 11598.4 secs   av.it.:  16.6
      thresh= 1.459E-05 alpha_mix =  0.700 |ddv_scf|^2 =  1.639E-09

     Pert. #  1: Fermi energy shift (Ry) =    -1.0771E-27    -7.6530E-42

      iter #   3 total cpu time : 11646.3 secs   av.it.:  16.3
      thresh= 4.049E-06 alpha_mix =  0.700 |ddv_scf|^2 =  7.721E-12

     Pert. #  1: Fermi energy shift (Ry) =    -5.3853E-28    -1.1958E-43

      iter #   4 total cpu time : 11713.3 secs   av.it.:  16.0
      thresh= 2.779E-07 alpha_mix =  0.700 |ddv_scf|^2 =  1.040E-13

     Pert. #  1: Fermi energy shift (Ry) =    -1.0771E-27     1.1958E-43

      iter #   5 total cpu time : 11747.8 secs   av.it.:  15.7
      thresh= 3.225E-08 alpha_mix =  0.700 |ddv_scf|^2 =  1.818E-15

     Pert. #  1: Fermi energy shift (Ry) =    -1.0771E-27     2.9894E-44

      iter #   6 total cpu time : 11776.2 secs   av.it.:  16.7
      thresh= 4.263E-09 alpha_mix =  0.700 |ddv_scf|^2 =  4.637E-17

     End of self-consistent calculation

     Convergence has been achieved 


     Representation #  24 mode #  35

     Self-consistent Calculation

     Pert. #  1: Fermi energy shift (Ry) =    -6.7316E-28    -3.1347E-38

      iter #   1 total cpu time : 11857.1 secs   av.it.:   6.9
      thresh= 1.000E-02 alpha_mix =  0.700 |ddv_scf|^2 =  1.504E-08

     Pert. #  1: Fermi energy shift (Ry) =    -6.4623E-27    -7.6530E-41

      iter #   2 total cpu time : 11892.2 secs   av.it.:  16.7
      thresh= 1.226E-05 alpha_mix =  0.700 |ddv_scf|^2 =  2.603E-10

     Pert. #  1: Fermi energy shift (Ry) =    -2.1541E-27     1.9132E-41

      iter #   3 total cpu time : 11952.8 secs   av.it.:  17.0
      thresh= 1.613E-06 alpha_mix =  0.700 |ddv_scf|^2 =  7.672E-12

     Pert. #  1: Fermi energy shift (Ry) =    -2.1541E-27    -2.3915E-42

      iter #   4 total cpu time : 11998.0 secs   av.it.:  16.4
      thresh= 2.770E-07 alpha_mix =  0.700 |ddv_scf|^2 =  1.466E-13

     Pert. #  1: Fermi energy shift (Ry) =    -3.2312E-27     2.9894E-44

      iter #   5 total cpu time : 12042.4 secs   av.it.:  16.0
      thresh= 3.829E-08 alpha_mix =  0.700 |ddv_scf|^2 =  1.906E-15

     Pert. #  1: Fermi energy shift (Ry) =    -2.1541E-27     2.9894E-44

      iter #   6 total cpu time : 12085.8 secs   av.it.:  15.9
      thresh= 4.366E-09 alpha_mix =  0.700 |ddv_scf|^2 =  3.450E-17

     End of self-consistent calculation

     Convergence has been achieved 


     Representation #  25 mode #  36

     Self-consistent Calculation

     Pert. #  1: Fermi energy shift (Ry) =    -8.0779E-28    -3.1347E-38

      iter #   1 total cpu time : 12146.8 secs   av.it.:   7.0
      thresh= 1.000E-02 alpha_mix =  0.700 |ddv_scf|^2 =  1.539E-08

     Pert. #  1: Fermi energy shift (Ry) =     5.3853E-28    -1.2245E-40

      iter #   2 total cpu time : 12183.0 secs   av.it.:  16.6
      thresh= 1.241E-05 alpha_mix =  0.700 |ddv_scf|^2 =  2.065E-10

     Pert. #  1: Fermi energy shift (Ry) =     8.0779E-28     0.0000E+00

      iter #   3 total cpu time : 12233.4 secs   av.it.:  17.0
      thresh= 1.437E-06 alpha_mix =  0.700 |ddv_scf|^2 =  6.772E-12

     Pert. #  1: Fermi energy shift (Ry) =     8.0779E-28    -9.5662E-43

      iter #   4 total cpu time : 12286.6 secs   av.it.:  16.4
      thresh= 2.602E-07 alpha_mix =  0.700 |ddv_scf|^2 =  1.704E-13

     Pert. #  1: Fermi energy shift (Ry) =    -1.0771E-27    -1.4947E-44

      iter #   5 total cpu time : 12338.4 secs   av.it.:  16.0
      thresh= 4.128E-08 alpha_mix =  0.700 |ddv_scf|^2 =  2.298E-15

     Pert. #  1: Fermi energy shift (Ry) =     0.0000E+00    -3.7368E-45

      iter #   6 total cpu time : 12376.0 secs   av.it.:  16.0
      thresh= 4.793E-09 alpha_mix =  0.700 |ddv_scf|^2 =  5.343E-17

     End of self-consistent calculation

     Convergence has been achieved 


     Representation #  26 mode #  37

     Self-consistent Calculation

     Pert. #  1: Fermi energy shift (Ry) =     1.0771E-27     3.9183E-39

      iter #   1 total cpu time : 12459.1 secs   av.it.:   7.0
      thresh= 1.000E-02 alpha_mix =  0.700 |ddv_scf|^2 =  1.699E-06

     Pert. #  1: Fermi energy shift (Ry) =    -2.5849E-26    -1.2245E-40

      iter #   2 total cpu time : 12490.8 secs   av.it.:  15.3
      thresh= 1.304E-04 alpha_mix =  0.700 |ddv_scf|^2 =  4.794E-03

     Pert. #  1: Fermi energy shift (Ry) =    -2.1541E-27    -9.7958E-40

      iter #   3 total cpu time : 12555.8 secs   av.it.:   7.9
      thresh= 6.924E-03 alpha_mix =  0.700 |ddv_scf|^2 =  1.446E-05

     Pert. #  1: Fermi energy shift (Ry) =    -1.2925E-26     4.8979E-40

      iter #   4 total cpu time : 12598.8 secs   av.it.:  11.7
      thresh= 3.802E-04 alpha_mix =  0.700 |ddv_scf|^2 =  1.265E-05

     Pert. #  1: Fermi energy shift (Ry) =     2.1541E-27    -6.1224E-41

      iter #   5 total cpu time : 12618.7 secs   av.it.:  10.9
      thresh= 3.557E-04 alpha_mix =  0.700 |ddv_scf|^2 =  1.173E-06

     Pert. #  1: Fermi energy shift (Ry) =    -3.2312E-27     6.1224E-41

      iter #   6 total cpu time : 12641.3 secs   av.it.:  11.0
      thresh= 1.083E-04 alpha_mix =  0.700 |ddv_scf|^2 =  2.261E-07

     Pert. #  1: Fermi energy shift (Ry) =    -3.2312E-27    -3.8265E-42

      iter #   7 total cpu time : 12658.3 secs   av.it.:  11.4
      thresh= 4.755E-05 alpha_mix =  0.700 |ddv_scf|^2 =  1.805E-08

     Pert. #  1: Fermi energy shift (Ry) =    -1.6156E-27     1.9132E-42

      iter #   8 total cpu time : 12679.4 secs   av.it.:  12.3
      thresh= 1.343E-05 alpha_mix =  0.700 |ddv_scf|^2 =  1.459E-09

     Pert. #  1: Fermi energy shift (Ry) =    -2.1541E-27    -4.7831E-43

      iter #   9 total cpu time : 12696.2 secs   av.it.:  13.3
      thresh= 3.820E-06 alpha_mix =  0.700 |ddv_scf|^2 =  1.464E-10

     Pert. #  1: Fermi energy shift (Ry) =    -1.0771E-27     4.7831E-43

      iter #  10 total cpu time : 12720.0 secs   av.it.:  12.7
      thresh= 1.210E-06 alpha_mix =  0.700 |ddv_scf|^2 =  3.740E-11

     Pert. #  1: Fermi energy shift (Ry) =    -2.1541E-27    -2.9894E-44

      iter #  11 total cpu time : 12747.2 secs   av.it.:  11.7
      thresh= 6.115E-07 alpha_mix =  0.700 |ddv_scf|^2 =  8.563E-14

     Pert. #  1: Fermi energy shift (Ry) =    -2.1541E-27     2.9894E-44

      iter #  12 total cpu time : 12767.2 secs   av.it.:  15.4
      thresh= 2.926E-08 alpha_mix =  0.700 |ddv_scf|^2 =  3.407E-13

     Pert. #  1: Fermi energy shift (Ry) =    -1.0771E-27     2.9894E-44

      iter #  13 total cpu time : 12781.6 secs   av.it.:  11.7
      thresh= 5.837E-08 alpha_mix =  0.700 |ddv_scf|^2 =  1.381E-13

     Pert. #  1: Fermi energy shift (Ry) =    -1.0771E-27    -3.7368E-45

      iter #  14 total cpu time : 12800.6 secs   av.it.:  11.9
      thresh= 3.716E-08 alpha_mix =  0.700 |ddv_scf|^2 =  2.372E-15

     Pert. #  1: Fermi energy shift (Ry) =    -2.1541E-27     3.7368E-45

      iter #  15 total cpu time : 12824.0 secs   av.it.:  14.0
      thresh= 4.870E-09 alpha_mix =  0.700 |ddv_scf|^2 =  1.064E-16

     Pert. #  1: Fermi energy shift (Ry) =    -1.0771E-27     3.7368E-45

      iter #  16 total cpu time : 12860.9 secs   av.it.:  15.3
      thresh= 1.031E-09 alpha_mix =  0.700 |ddv_scf|^2 =  7.031E-17

     End of self-consistent calculation

     Convergence has been achieved 


     Representation #  27 mode #  38

     Self-consistent Calculation

     Pert. #  1: Fermi energy shift (Ry) =     8.6165E-27     0.0000E+00

      iter #   1 total cpu time : 12969.2 secs   av.it.:   8.0
      thresh= 1.000E-02 alpha_mix =  0.700 |ddv_scf|^2 =  4.736E-04

     Pert. #  1: Fermi energy shift (Ry) =     4.1359E-25     3.9183E-39

      iter #   2 total cpu time : 13041.3 secs   av.it.:  14.7
      thresh= 2.176E-03 alpha_mix =  0.700 |ddv_scf|^2 =  1.500E+00

     Pert. #  1: Fermi energy shift (Ry) =     3.4466E-26     1.5673E-38

      iter #   3 total cpu time : 13095.4 secs   av.it.:  12.3
      thresh= 1.000E-02 alpha_mix =  0.700 |ddv_scf|^2 =  3.629E-04

     Pert. #  1: Fermi energy shift (Ry) =    -8.6165E-27     0.0000E+00

      iter #   4 total cpu time : 13149.6 secs   av.it.:  11.7
      thresh= 1.905E-03 alpha_mix =  0.700 |ddv_scf|^2 =  4.517E-04

     Pert. #  1: Fermi energy shift (Ry) =     3.4466E-26    -3.9183E-39

      iter #   5 total cpu time : 13207.3 secs   av.it.:  10.6
      thresh= 2.125E-03 alpha_mix =  0.700 |ddv_scf|^2 =  2.488E-05

     Pert. #  1: Fermi energy shift (Ry) =    -6.4623E-27    -1.9592E-39

      iter #   6 total cpu time : 13235.1 secs   av.it.:  11.1
      thresh= 4.988E-04 alpha_mix =  0.700 |ddv_scf|^2 =  8.095E-06

     Pert. #  1: Fermi energy shift (Ry) =     1.7233E-26     4.8979E-40

      iter #   7 total cpu time : 13266.5 secs   av.it.:  11.0
      thresh= 2.845E-04 alpha_mix =  0.700 |ddv_scf|^2 =  6.247E-07

[...]

      iter #  17 total cpu time : 61573.3 secs   av.it.:  15.9
      thresh= 3.345E-09 alpha_mix =  0.700 |ddv_scf|^2 =  5.779E-16

      iter #  18 total cpu time : 61610.9 secs   av.it.:  15.1
      thresh= 2.404E-09 alpha_mix =  0.700 |ddv_scf|^2 =  3.458E-16

      iter #  19 total cpu time : 61646.4 secs   av.it.:  13.7
      thresh= 1.859E-09 alpha_mix =  0.700 |ddv_scf|^2 =  3.059E-17

     End of self-consistent calculation

     Convergence has been achieved 


     Representation #  64 mode #  65

     Self-consistent Calculation

      iter #   1 total cpu time : 61721.1 secs   av.it.:   7.2
      thresh= 1.000E-02 alpha_mix =  0.700 |ddv_scf|^2 =  7.085E-07

      iter #   2 total cpu time : 61757.0 secs   av.it.:  17.5
      thresh= 8.417E-05 alpha_mix =  0.700 |ddv_scf|^2 =  6.990E-05

      iter #   3 total cpu time : 61804.9 secs   av.it.:  12.9
      thresh= 8.361E-04 alpha_mix =  0.700 |ddv_scf|^2 =  5.321E-05

      iter #   4 total cpu time : 61874.4 secs   av.it.:  12.4
      thresh= 7.295E-04 alpha_mix =  0.700 |ddv_scf|^2 =  5.031E-07

      iter #   5 total cpu time : 61914.8 secs   av.it.:  14.4
      thresh= 7.093E-05 alpha_mix =  0.700 |ddv_scf|^2 =  6.059E-08

      iter #   6 total cpu time : 61953.5 secs   av.it.:  14.8
      thresh= 2.461E-05 alpha_mix =  0.700 |ddv_scf|^2 =  1.303E-09

      iter #   7 total cpu time : 61999.8 secs   av.it.:  15.3
      thresh= 3.610E-06 alpha_mix =  0.700 |ddv_scf|^2 =  2.304E-11

      iter #   8 total cpu time : 62044.3 secs   av.it.:  16.0
      thresh= 4.800E-07 alpha_mix =  0.700 |ddv_scf|^2 =  6.530E-12

      iter #   9 total cpu time : 62112.8 secs   av.it.:  15.7
      thresh= 2.555E-07 alpha_mix =  0.700 |ddv_scf|^2 =  3.356E-12

      iter #  10 total cpu time : 62147.2 secs   av.it.:  14.2
      thresh= 1.832E-07 alpha_mix =  0.700 |ddv_scf|^2 =  3.698E-13

      iter #  11 total cpu time : 62188.8 secs   av.it.:  16.9
      thresh= 6.081E-08 alpha_mix =  0.700 |ddv_scf|^2 =  5.155E-12

      iter #  12 total cpu time : 62221.5 secs   av.it.:  13.9
      thresh= 2.271E-07 alpha_mix =  0.700 |ddv_scf|^2 =  3.534E-14

      iter #  13 total cpu time : 62259.0 secs   av.it.:  16.0
      thresh= 1.880E-08 alpha_mix =  0.700 |ddv_scf|^2 =  9.904E-15

      iter #  14 total cpu time : 62310.0 secs   av.it.:  15.2
      thresh= 9.952E-09 alpha_mix =  0.700 |ddv_scf|^2 =  1.123E-14

      iter #  15 total cpu time : 62347.3 secs   av.it.:  12.8
      thresh= 1.059E-08 alpha_mix =  0.700 |ddv_scf|^2 =  3.303E-16

      iter #  16 total cpu time : 62399.7 secs   av.it.:  15.8
      thresh= 1.817E-09 alpha_mix =  0.700 |ddv_scf|^2 =  2.083E-16

      iter #  17 total cpu time : 62438.6 secs   av.it.:  14.8
      thresh= 1.443E-09 alpha_mix =  0.700 |ddv_scf|^2 =  8.853E-18

     End of self-consistent calculation

     Convergence has been achieved 


     Representation #  65 mode #  66

     Self-consistent Calculation

      iter #   1 total cpu time : 62513.6 secs   av.it.:   7.4
      thresh= 1.000E-02 alpha_mix =  0.700 |ddv_scf|^2 =  1.265E-05

      iter #   2 total cpu time : 62550.0 secs   av.it.:  17.2
      thresh= 3.556E-04 alpha_mix =  0.700 |ddv_scf|^2 =  8.523E-03

      iter #   3 total cpu time : 62595.1 secs   av.it.:  11.7
      thresh= 9.232E-03 alpha_mix =  0.700 |ddv_scf|^2 =  4.346E-06

      iter #   4 total cpu time : 62645.4 secs   av.it.:  13.8
      thresh= 2.085E-04 alpha_mix =  0.700 |ddv_scf|^2 =  1.167E-06

      iter #   5 total cpu time : 62684.7 secs   av.it.:  13.6
      thresh= 1.080E-04 alpha_mix =  0.700 |ddv_scf|^2 =  3.824E-07

      iter #   6 total cpu time : 62715.1 secs   av.it.:  13.8
      thresh= 6.184E-05 alpha_mix =  0.700 |ddv_scf|^2 =  9.668E-10

      iter #   7 total cpu time : 62745.5 secs   av.it.:  16.8
      thresh= 3.109E-06 alpha_mix =  0.700 |ddv_scf|^2 =  7.844E-10

      iter #   8 total cpu time : 62780.9 secs   av.it.:  14.8
      thresh= 2.801E-06 alpha_mix =  0.700 |ddv_scf|^2 =  3.367E-11

      iter #   9 total cpu time : 62808.3 secs   av.it.:  15.9
      thresh= 5.803E-07 alpha_mix =  0.700 |ddv_scf|^2 =  6.323E-12

      iter #  10 total cpu time : 62843.0 secs   av.it.:  16.2
      thresh= 2.515E-07 alpha_mix =  0.700 |ddv_scf|^2 =  1.140E-12

      iter #  11 total cpu time : 62871.5 secs   av.it.:  15.5
      thresh= 1.068E-07 alpha_mix =  0.700 |ddv_scf|^2 =  4.436E-13

      iter #  12 total cpu time : 62903.4 secs   av.it.:  15.4
      thresh= 6.660E-08 alpha_mix =  0.700 |ddv_scf|^2 =  8.585E-14

      iter #  13 total cpu time : 62937.1 secs   av.it.:  17.8
      thresh= 2.930E-08 alpha_mix =  0.700 |ddv_scf|^2 =  1.253E-11

      iter #  14 total cpu time : 62966.4 secs   av.it.:  12.7
      thresh= 3.540E-07 alpha_mix =  0.700 |ddv_scf|^2 =  1.665E-14

      iter #  15 total cpu time : 63005.6 secs   av.it.:  14.9
      thresh= 1.290E-08 alpha_mix =  0.700 |ddv_scf|^2 =  9.776E-15

      iter #  16 total cpu time : 63027.0 secs   av.it.:  14.5
      thresh= 9.888E-09 alpha_mix =  0.700 |ddv_scf|^2 =  4.391E-17

     End of self-consistent calculation

     Convergence has been achieved 

     Number of q in the star =    3
     List of q in the star:
          1   0.288675135  -0.500000000   0.000000000
          2   0.577350269   0.000000000  -0.000000000
          3  -0.288675135  -0.500000000   0.000000000

     Diagonalizing the dynamical matrix

     q = (    0.288675135  -0.500000000   0.000000000 ) 

 **************************************************************************
     freq (    1) =       1.575851 [THz] =      52.564728 [cm-1]
     freq (    2) =       1.711571 [THz] =      57.091860 [cm-1]
     freq (    3) =       1.747950 [THz] =      58.305348 [cm-1]
     freq (    4) =       1.787833 [THz] =      59.635701 [cm-1]
     freq (    5) =       1.894227 [THz] =      63.184595 [cm-1]
     freq (    6) =       2.134200 [THz] =      71.189265 [cm-1]
     freq (    7) =       2.585508 [THz] =      86.243250 [cm-1]
     freq (    8) =       2.665659 [THz] =      88.916803 [cm-1]
     freq (    9) =       3.526659 [THz] =     117.636670 [cm-1]
     freq (   10) =       3.544192 [THz] =     118.221504 [cm-1]
     freq (   11) =       3.735230 [THz] =     124.593874 [cm-1]
     freq (   12) =       3.772489 [THz] =     125.836693 [cm-1]
     freq (   13) =       4.355192 [THz] =     145.273579 [cm-1]
     freq (   14) =       4.384844 [THz] =     146.262658 [cm-1]
     freq (   15) =       4.839032 [THz] =     161.412719 [cm-1]
     freq (   16) =       4.866990 [THz] =     162.345328 [cm-1]
     freq (   17) =       5.234230 [THz] =     174.595103 [cm-1]
     freq (   18) =       5.591619 [THz] =     186.516344 [cm-1]
     freq (   19) =       5.866962 [THz] =     195.700798 [cm-1]
     freq (   20) =       6.022425 [THz] =     200.886465 [cm-1]
     freq (   21) =       6.150116 [THz] =     205.145773 [cm-1]
     freq (   22) =       6.390189 [THz] =     213.153775 [cm-1]
     freq (   23) =       6.615561 [THz] =     220.671362 [cm-1]
     freq (   24) =       6.724366 [THz] =     224.300713 [cm-1]
     freq (   25) =       7.129933 [THz] =     237.828957 [cm-1]
     freq (   26) =       7.153418 [THz] =     238.612334 [cm-1]
     freq (   27) =       7.635728 [THz] =     254.700476 [cm-1]
     freq (   28) =       7.651077 [THz] =     255.212446 [cm-1]
     freq (   29) =       8.738462 [THz] =     291.483704 [cm-1]
     freq (   30) =       8.771469 [THz] =     292.584723 [cm-1]
     freq (   31) =       9.066734 [THz] =     302.433686 [cm-1]
     freq (   32) =       9.071289 [THz] =     302.585642 [cm-1]
     freq (   33) =       9.290002 [THz] =     309.881100 [cm-1]
     freq (   34) =       9.295168 [THz] =     310.053432 [cm-1]
     freq (   35) =       9.321037 [THz] =     310.916328 [cm-1]
     freq (   36) =       9.327054 [THz] =     311.117033 [cm-1]
     freq (   37) =       9.606025 [THz] =     320.422492 [cm-1]
     freq (   38) =       9.613098 [THz] =     320.658425 [cm-1]
     freq (   39) =       9.717915 [THz] =     324.154754 [cm-1]
     freq (   40) =       9.876783 [THz] =     329.454006 [cm-1]
     freq (   41) =      10.064398 [THz] =     335.712189 [cm-1]
     freq (   42) =      10.108962 [THz] =     337.198691 [cm-1]
     freq (   43) =      10.183720 [THz] =     339.692318 [cm-1]
     freq (   44) =      10.256648 [THz] =     342.124947 [cm-1]
     freq (   45) =      10.274223 [THz] =     342.711204 [cm-1]
     freq (   46) =      10.278634 [THz] =     342.858309 [cm-1]
     freq (   47) =      10.495262 [THz] =     350.084271 [cm-1]
     freq (   48) =      10.518928 [THz] =     350.873663 [cm-1]
     freq (   49) =      10.922573 [THz] =     364.337814 [cm-1]
     freq (   50) =      10.923400 [THz] =     364.365408 [cm-1]
     freq (   51) =      11.507517 [THz] =     383.849437 [cm-1]
     freq (   52) =      11.576810 [THz] =     386.160812 [cm-1]
     freq (   53) =      12.116263 [THz] =     404.155041 [cm-1]
     freq (   54) =      12.142098 [THz] =     405.016787 [cm-1]
     freq (   55) =      12.353795 [THz] =     412.078245 [cm-1]
     freq (   56) =      12.357542 [THz] =     412.203247 [cm-1]
     freq (   57) =      13.124800 [THz] =     437.796214 [cm-1]
     freq (   58) =      13.129472 [THz] =     437.952041 [cm-1]
     freq (   59) =      14.494269 [THz] =     483.476757 [cm-1]
     freq (   60) =      14.595629 [THz] =     486.857775 [cm-1]
     freq (   61) =      15.499712 [THz] =     517.014755 [cm-1]
     freq (   62) =      15.761209 [THz] =     525.737350 [cm-1]
     freq (   63) =      15.833949 [THz] =     528.163692 [cm-1]
     freq (   64) =      16.164221 [THz] =     539.180367 [cm-1]
     freq (   65) =      16.684342 [THz] =     556.529740 [cm-1]
     freq (   66) =      16.777882 [THz] =     559.649896 [cm-1]
 **************************************************************************

     Mode symmetry, C_2h (2/m)  point group:

     freq (   1-   1) =         52.6  [cm-1]   --> B_u                
     freq (   2-   2) =         57.1  [cm-1]   --> A_u                
     freq (   3-   3) =         58.3  [cm-1]   --> B_g                
     freq (   4-   4) =         59.6  [cm-1]   --> A_g                
     freq (   5-   5) =         63.2  [cm-1]   --> B_u                
     freq (   6-   6) =         71.2  [cm-1]   --> A_g                
     freq (   7-   7) =         86.2  [cm-1]   --> A_u                
     freq (   8-   8) =         88.9  [cm-1]   --> B_g                
     freq (   9-   9) =        117.6  [cm-1]   --> A_g                
     freq (  10-  10) =        118.2  [cm-1]   --> B_u                
     freq (  11-  11) =        124.6  [cm-1]   --> B_g                
     freq (  12-  12) =        125.8  [cm-1]   --> A_u                
     freq (  13-  13) =        145.3  [cm-1]   --> B_u                
     freq (  14-  14) =        146.3  [cm-1]   --> A_g                
     freq (  15-  15) =        161.4  [cm-1]   --> B_g                
     freq (  16-  16) =        162.3  [cm-1]   --> A_u                
     freq (  17-  17) =        174.6  [cm-1]   --> B_u                
     freq (  18-  18) =        186.5  [cm-1]   --> B_g                
     freq (  19-  19) =        195.7  [cm-1]   --> A_g                
     freq (  20-  20) =        200.9  [cm-1]   --> A_u                
     freq (  21-  21) =        205.1  [cm-1]   --> A_g                
     freq (  22-  22) =        213.2  [cm-1]   --> B_u                
     freq (  23-  23) =        220.7  [cm-1]   --> A_g                
     freq (  24-  24) =        224.3  [cm-1]   --> B_u                
     freq (  25-  25) =        237.8  [cm-1]   --> B_g                
     freq (  26-  26) =        238.6  [cm-1]   --> A_u                
     freq (  27-  27) =        254.7  [cm-1]   --> B_u                
     freq (  28-  28) =        255.2  [cm-1]   --> A_g                
     freq (  29-  29) =        291.5  [cm-1]   --> B_u                
     freq (  30-  30) =        292.6  [cm-1]   --> A_g                
     freq (  31-  31) =        302.4  [cm-1]   --> A_u                
     freq (  32-  32) =        302.6  [cm-1]   --> B_g                
     freq (  33-  33) =        309.9  [cm-1]   --> A_u                
     freq (  34-  34) =        310.1  [cm-1]   --> B_u                
     freq (  35-  35) =        310.9  [cm-1]   --> A_g                
     freq (  36-  36) =        311.1  [cm-1]   --> B_g                
     freq (  37-  37) =        320.4  [cm-1]   --> B_u                
     freq (  38-  38) =        320.7  [cm-1]   --> A_g                
     freq (  39-  39) =        324.2  [cm-1]   --> B_g                
     freq (  40-  40) =        329.5  [cm-1]   --> A_u                
     freq (  41-  41) =        335.7  [cm-1]   --> B_u                
     freq (  42-  42) =        337.2  [cm-1]   --> A_g                
     freq (  43-  43) =        339.7  [cm-1]   --> B_u                
     freq (  44-  44) =        342.1  [cm-1]   --> B_g                
     freq (  45-  45) =        342.7  [cm-1]   --> A_u                
     freq (  46-  46) =        342.9  [cm-1]   --> A_g                
     freq (  47-  47) =        350.1  [cm-1]   --> A_u                
     freq (  48-  48) =        350.9  [cm-1]   --> B_g                
     freq (  49-  49) =        364.3  [cm-1]   --> B_g                
     freq (  50-  50) =        364.4  [cm-1]   --> A_u                
     freq (  51-  51) =        383.8  [cm-1]   --> B_u                
     freq (  52-  52) =        386.2  [cm-1]   --> A_g                
     freq (  53-  53) =        404.2  [cm-1]   --> A_g                
     freq (  54-  54) =        405.0  [cm-1]   --> B_u                
     freq (  55-  55) =        412.1  [cm-1]   --> B_g                
     freq (  56-  56) =        412.2  [cm-1]   --> A_u                
     freq (  57-  57) =        437.8  [cm-1]   --> B_u                
     freq (  58-  58) =        438.0  [cm-1]   --> A_g                
     freq (  59-  59) =        483.5  [cm-1]   --> B_u                
     freq (  60-  60) =        486.9  [cm-1]   --> A_g                
     freq (  61-  61) =        517.0  [cm-1]   --> B_g                
     freq (  62-  62) =        525.7  [cm-1]   --> B_u                
     freq (  63-  63) =        528.2  [cm-1]   --> A_u                
     freq (  64-  64) =        539.2  [cm-1]   --> A_g                
     freq (  65-  65) =        556.5  [cm-1]   --> B_u                
     freq (  66-  66) =        559.6  [cm-1]   --> A_g                

     init_run     :      0.21s CPU     19.68s WALL (       1 calls)
     electrons    :     73.85s CPU     75.25s WALL (       1 calls)

     Called by init_run:
     wfcinit      :      0.00s CPU     19.04s WALL (       1 calls)
     potinit      :      0.03s CPU      0.43s WALL (       1 calls)
     hinit0       :      0.00s CPU      0.01s WALL (       1 calls)

     Called by electrons:
     c_bands      :     69.94s CPU     71.24s WALL (       1 calls)
     v_of_rho     :      0.05s CPU      0.06s WALL (       2 calls)

     Called by c_bands:
     init_us_2    :      9.79s CPU     10.97s WALL (    2878 calls)
     cegterg      :     30.23s CPU     30.83s WALL (       8 calls)

     Called by *egterg:
     cdiaghg      :      7.11s CPU      7.19s WALL (     148 calls)
     h_psi        :   6972.38s CPU   7078.79s WALL (   84885 calls)
     g_psi        :      0.07s CPU      0.07s WALL (     144 calls)

     Called by h_psi:
     h_psi:calbec :    809.73s CPU    821.90s WALL (   84885 calls)
     vloc_psi     :   5333.19s CPU   5414.09s WALL (   84885 calls)
     add_vuspsi   :    699.42s CPU    710.66s WALL (   84885 calls)

     General routines
     calbec       :   1922.19s CPU   1949.00s WALL (  170480 calls)
     fft          :     66.61s CPU     73.22s WALL (   20811 calls)
     ffts         :    485.85s CPU    492.32s WALL (   11528 calls)
     fftw         :   9530.99s CPU   9651.55s WALL ( 8850728 calls)
     davcio       :      3.78s CPU   7426.65s WALL (   26948 calls)

     Parallel routines

     PHONON       :  47331.17s CPU  63100.84s WALL

     INITIALIZATION: 
     phq_setup    :      0.13s CPU      0.20s WALL (       2 calls)
     phq_init     :    303.11s CPU    316.69s WALL (       2 calls)

     phq_init     :    303.11s CPU    316.69s WALL (       2 calls)
     init_vloc    :      0.00s CPU      0.00s WALL (       2 calls)
     init_us_1    :      0.00s CPU      0.00s WALL (       2 calls)
     init_us_2    :      9.79s CPU     10.97s WALL (    2878 calls)

     DYNAMICAL MATRIX:
     dynmat0      :    301.83s CPU    315.35s WALL (       2 calls)
     dynmat_us    :    291.75s CPU    294.14s WALL (       2 calls)
     d2ionq       :      0.69s CPU      0.70s WALL (       2 calls)
     phqscf       :  46695.95s CPU  62116.87s WALL (       2 calls)
     dynmatrix    :      7.38s CPU      7.49s WALL (       2 calls)

     phqscf       :  46695.95s CPU  62116.87s WALL (       2 calls)
     solve_linter :  46482.43s CPU  61649.47s WALL (     109 calls)
     sth_kernel   :  18961.85s CPU  22963.22s WALL (    1493 calls)
     h_prec       :   2208.42s CPU   2228.37s WALL (    2476 calls)
     apply_dpot_b :   3400.68s CPU   3436.38s WALL (    2558 calls)
     ortho        :    275.79s CPU    278.68s WALL (    2756 calls)
     cgsolve      :   9986.54s CPU  10148.74s WALL (    2756 calls)
     incdrhoscf   :   1149.43s CPU   1161.81s WALL (    2756 calls)
                                        0.00s GPU  (    2756 calls)
     dv_of_drho   :     78.30s CPU     89.31s WALL (    1753 calls)
     mix_pot      :   3994.19s CPU   9779.01s WALL (    1493 calls)
     ef_shift     :      2.50s CPU      3.72s WALL (     510 calls)
     ef_shift_wfc :      0.03s CPU     10.04s WALL (      44 calls)
     localdos     :    335.33s CPU    338.91s WALL (      44 calls)
     drhodv       :    211.90s CPU    287.95s WALL (     109 calls)
     psymdvscf    :    629.62s CPU    672.18s WALL (    1493 calls)

     dvqpsi_us    :    506.61s CPU    511.53s WALL (     198 calls)
                                        0.00s GPU  (     198 calls)
     dvqpsi_us_on :      9.84s CPU     10.08s WALL (     198 calls)

     add_vuspsi   :    699.42s CPU    710.66s WALL (   84885 calls)


      General routines
     calbec       :   1922.19s CPU   1949.00s WALL (  170480 calls)
     fft          :     66.61s CPU     73.22s WALL (   20811 calls)
     ffts         :    485.85s CPU    492.32s WALL (   11528 calls)
     fftw         :   9530.99s CPU   9651.55s WALL ( 8850728 calls)
     davcio       :      3.78s CPU   7426.65s WALL (   26948 calls)
     write_rec    :      5.27s CPU   4851.41s WALL (    1602 calls)

      Additional routines
     ch_psi       :   9235.85s CPU   9380.46s WALL (   84729 calls)
     last         :   1917.86s CPU   1947.61s WALL (   84729 calls)
     Hesh         :    155.13s CPU    157.83s WALL (   84729 calls)
     ch_psi_all_k :   1761.98s CPU   1789.26s WALL (   84729 calls)
                                        0.00s GPU  (   84729 calls)
     ch_psi_calbe :    776.91s CPU    787.18s WALL (   84729 calls)
                                        0.00s GPU  (   84729 calls)
     h_psi_bgrp   :   6972.73s CPU   7078.98s WALL (   84885 calls)
     h_psi        :   6972.38s CPU   7078.79s WALL (   84885 calls)
     h_psi:pot    :   6843.39s CPU   6947.21s WALL (   84885 calls)
     h_psi:calbec :    809.73s CPU    821.90s WALL (   84885 calls)
     s_psi_bgrp   :    245.99s CPU    251.35s WALL (  172214 calls)


     PHONON       :  47331.17s CPU  63100.85s WALL


   This run was terminated on:  14:22:30   8May2025            

=------------------------------------------------------------------------------=
   JOB DONE.
=------------------------------------------------------------------------------=
