
     Program PWSCF v.7.3.1 starts on  7May2025 at 20:48:40 

     This program is part of the open-source Quantum ESPRESSO suite
     for quantum simulation of materials; please cite
         "P. Giannozzi et al., J. Phys.:Condens. Matter 21 395502 (2009);
         "P. Giannozzi et al., J. Phys.:Condens. Matter 29 465901 (2017);
         "P. Giannozzi et al., J. Chem. Phys. 152 154105 (2020);
          URL http://www.quantum-espresso.org", 
     in publications or presentations arising from this work. More details at
     http://www.quantum-espresso.org/quote

     Parallel version (MPI & OpenMP), running on     384 processor cores
     Number of MPI processes:               384
     Threads/MPI process:                     1

     MPI processes distributed on     2 nodes
     328386 MiB available memory on the printing compute node when the environment starts

     Waiting for input...
     Reading input from standard input
Warning: card &CELL ignored
Warning: card / ignored
Warning: card &FCP ignored
Warning: card / ignored
Warning: card &RISM ignored
Warning: card / ignored

     Current dimensions of program PWSCF are:
     Max number of different atomic species (ntypx) = 10
     Max number of k-points (npk) =  40000
     Max angular momentum in pseudopotentials (lmaxx) =  4

     IMPORTANT: XC functional enforced from input :
     Exchange-correlation= PBE
                           (   1   4   3   4   0   0   0)
     Any further DFT definition will be discarded
     Please, verify this is what you really want

     Message from routine setup:
     using ibrav=0 with symmetry is DISCOURAGED, use correct ibrav instead

     K-points division:     npool     =      12
     R & G space division:  proc/nbgrp/npool/nimage =      32
     Subspace diagonalization in iterative solution of the eigenvalue problem:
     a serial algorithm will be used

     Message from routine divide_et_impera:
     suboptimal parallelization: some nodes have no k-points

     Parallelization info
     --------------------
     sticks:   dense  smooth     PW     G-vecs:    dense   smooth      PW
     Min         107     107     28                20893    20893    2906
     Max         108     108     29                20918    20918    2929
     Sum        3427    3427    925               668819   668819   93523

     Using Slab Decomposition



     bravais-lattice index     =            0
     lattice parameter (alat)  =      11.1557  a.u.
     unit-cell volume          =    4949.5834 (a.u.)^3
     number of atoms/cell      =           22
     number of atomic types    =            2
     number of electrons       =       190.00
     number of Kohn-Sham states=          114
     kinetic-energy cutoff     =     100.0000  Ry
     charge density cutoff     =     400.0000  Ry
     scf convergence threshold =      1.0E-12
     mixing beta               =       0.7000
     number of iterations used =            8  plain     mixing
     Exchange-correlation= PBE
                           (   1   4   3   4   0   0   0)

     celldm(1)=  11.155732  celldm(2)=   0.000000  celldm(3)=   0.000000
     celldm(4)=   0.000000  celldm(5)=   0.000000  celldm(6)=   0.000000

     crystal axes: (cart. coord. in units of alat)
               a(1) = (   0.866025   0.500000   0.000000 )  
               a(2) = (  -0.866025   0.500000   0.000000 )  
               a(3) = (   0.000000   0.000000   4.116649 )  

     reciprocal axes: (cart. coord. in units 2 pi/alat)
               b(1) = (  0.577350  1.000000 -0.000000 )  
               b(2) = ( -0.577350  1.000000  0.000000 )  
               b(3) = (  0.000000 -0.000000  0.242916 )  


     PseudoPot. # 1 for Nb read from file:
     /scratch-shared/mroesner/Nb3X8_cDFPT/pp/Nb_ONCV_PBE-1.2.upf
     MD5 check sum: 2c750ac0b6910ff4cf0ab5f6c4124a64
     Pseudo is Norm-conserving, Zval = 13.0
     Generated using ONCVPSP code by D. R. Hamann
     Using radial grid of  602 points,  6 beta functions with: 
                l(1) =   0
                l(2) =   0
                l(3) =   1
                l(4) =   1
                l(5) =   2
                l(6) =   2

     PseudoPot. # 2 for F  read from file:
     /scratch-shared/mroesner/Nb3X8_cDFPT/pp/F_ONCV_PBE-1.2.upf
     MD5 check sum: 1d8275f47d602dd53cad6bcdc0eda7dc
     Pseudo is Norm-conserving, Zval =  7.0
     Generated using ONCVPSP code by D. R. Hamann
     Using radial grid of  602 points,  4 beta functions with: 
                l(1) =   0
                l(2) =   0
                l(3) =   1
                l(4) =   1

     atomic species   valence    mass     pseudopotential
     Nb               13.00    92.90637     Nb( 1.00)
     F                 7.00    18.99840     F ( 1.00)

     12 Sym. Ops., with inversion, found


                                    s                        frac. trans.

      isym =  1     identity                                     

 cryst.   s( 1) = (     1          0          0      )
                  (     0          1          0      )
                  (     0          0          1      )

 cart.    s( 1) = (  1.0000000  0.0000000  0.0000000 )
                  (  0.0000000  1.0000000  0.0000000 )
                  (  0.0000000  0.0000000  1.0000000 )


      isym =  2     180 deg rotation - cart. axis [0,1,0]        

 cryst.   s( 2) = (     0          1          0      )
                  (     1          0          0      )
                  (     0          0         -1      )

 cart.    s( 2) = ( -1.0000000  0.0000000  0.0000000 )
                  ( -0.0000000  1.0000000  0.0000000 )
                  (  0.0000000  0.0000000 -1.0000000 )


      isym =  3     120 deg rotation - cryst. axis [0,0,1]       

 cryst.   s( 3) = (     0          1          0      )
                  (    -1         -1          0      )
                  (     0          0          1      )

 cart.    s( 3) = ( -0.5000000 -0.8660254  0.0000000 )
                  (  0.8660254 -0.5000000  0.0000000 )
                  (  0.0000000  0.0000000  1.0000000 )


      isym =  4     120 deg rotation - cryst. axis [0,0,-1]      

 cryst.   s( 4) = (    -1         -1          0      )
                  (     1          0          0      )
                  (     0          0          1      )

 cart.    s( 4) = ( -0.5000000  0.8660254  0.0000000 )
                  ( -0.8660254 -0.5000000  0.0000000 )
                  (  0.0000000  0.0000000  1.0000000 )


      isym =  5     180 deg rotation - cryst. axis [1,-1,0]      

 cryst.   s( 5) = (    -1         -1          0      )
                  (     0          1          0      )
                  (     0          0         -1      )

 cart.    s( 5) = (  0.5000000 -0.8660254  0.0000000 )
                  ( -0.8660254 -0.5000000  0.0000000 )
                  (  0.0000000  0.0000000 -1.0000000 )


      isym =  6     180 deg rotation - cryst. axis [2,1,0]       

 cryst.   s( 6) = (     1          0          0      )
                  (    -1         -1          0      )
                  (     0          0         -1      )

 cart.    s( 6) = (  0.5000000  0.8660254  0.0000000 )
                  (  0.8660254 -0.5000000  0.0000000 )
                  (  0.0000000  0.0000000 -1.0000000 )


      isym =  7     inversion                                    

 cryst.   s( 7) = (    -1          0          0      )
                  (     0         -1          0      )
                  (     0          0         -1      )

 cart.    s( 7) = ( -1.0000000 -0.0000000  0.0000000 )
                  ( -0.0000000 -1.0000000  0.0000000 )
                  (  0.0000000  0.0000000 -1.0000000 )


      isym =  8     inv. 180 deg rotation - cart. axis [0,1,0]   

 cryst.   s( 8) = (     0         -1          0      )
                  (    -1          0          0      )
                  (     0          0          1      )

 cart.    s( 8) = (  1.0000000 -0.0000000  0.0000000 )
                  (  0.0000000 -1.0000000  0.0000000 )
                  (  0.0000000  0.0000000  1.0000000 )


      isym =  9     inv. 120 deg rotation - cryst. axis [0,0,1]  

 cryst.   s( 9) = (     0         -1          0      )
                  (     1          1          0      )
                  (     0          0         -1      )

 cart.    s( 9) = (  0.5000000  0.8660254  0.0000000 )
                  ( -0.8660254  0.5000000  0.0000000 )
                  (  0.0000000  0.0000000 -1.0000000 )


      isym = 10     inv. 120 deg rotation - cryst. axis [0,0,-1] 

 cryst.   s(10) = (     1          1          0      )
                  (    -1          0          0      )
                  (     0          0         -1      )

 cart.    s(10) = (  0.5000000 -0.8660254  0.0000000 )
                  (  0.8660254  0.5000000  0.0000000 )
                  (  0.0000000  0.0000000 -1.0000000 )


      isym = 11     inv. 180 deg rotation - cryst. axis [1,-1,0] 

 cryst.   s(11) = (     1          1          0      )
                  (     0         -1          0      )
                  (     0          0          1      )

 cart.    s(11) = ( -0.5000000  0.8660254  0.0000000 )
                  (  0.8660254  0.5000000  0.0000000 )
                  (  0.0000000  0.0000000  1.0000000 )


      isym = 12     inv. 180 deg rotation - cryst. axis [2,1,0]  

 cryst.   s(12) = (    -1          0          0      )
                  (     1          1          0      )
                  (     0          0          1      )

 cart.    s(12) = ( -0.5000000 -0.8660254  0.0000000 )
                  ( -0.8660254  0.5000000  0.0000000 )
                  (  0.0000000  0.0000000  1.0000000 )


   Cartesian axes

     site n.     atom                  positions (alat units)
         1        Nb     tau(   1) = (   0.2522262  -0.0000000  -0.4276782  )
         2        Nb     tau(   2) = (  -0.1261131   0.2184343  -0.4276782  )
         3        Nb     tau(   3) = (  -0.1261131  -0.2184343  -0.4276782  )
         4        Nb     tau(   4) = (  -0.2522262   0.0000000   0.4276782  )
         5        Nb     tau(   5) = (   0.1261131  -0.2184343   0.4276782  )
         6        Nb     tau(   6) = (   0.1261131   0.2184343   0.4276782  )
         7        F      tau(   7) = (   0.0000000   0.0000000  -0.6939995  )
         8        F      tau(   8) = (   0.8540048   0.0000000  -0.6145021  )
         9        F      tau(   9) = (   0.4390230   0.2395899  -0.6145021  )
        10        F      tau(  10) = (   0.4390230  -0.2395899  -0.6145021  )
        11        F      tau(  11) = (   0.5773503  -0.0000000  -0.2355344  )
        12        F      tau(  12) = (  -0.2803149  -0.0000000  -0.2003061  )
        13        F      tau(  13) = (   0.1401575  -0.2427598  -0.2003061  )
        14        F      tau(  14) = (   0.1401575   0.2427598  -0.2003061  )
        15        F      tau(  15) = (   0.2803149   0.0000000   0.2003061  )
        16        F      tau(  16) = (  -0.1401575   0.2427598   0.2003061  )
        17        F      tau(  17) = (  -0.1401575  -0.2427598   0.2003061  )
        18        F      tau(  18) = (  -0.5773503   0.0000000   0.2355344  )
        19        F      tau(  19) = (  -0.8540048  -0.0000000   0.6145021  )
        20        F      tau(  20) = (  -0.4390230  -0.2395899   0.6145021  )
        21        F      tau(  21) = (  -0.4390230   0.2395899   0.6145021  )
        22        F      tau(  22) = (   0.0000000   0.0000000   0.6939995  )

     --------------------------------------------
     DFT-D3 Dispersion Correction (no 3-body):
     --------------------------------------------
       Reference C6 values for interpolation: 

         atom   Coordination number   C6
         F          0.000            19.38
         F          0.998            14.27
         Nb         0.000          2950.50
         Nb         1.954          1161.16
         Nb         2.922           857.79

       Values used:

         atom   Coordination number  R0_AB[au]  C6      C8
         Nb         9.427            3.647    857.79 111659.18
         Nb         9.427            3.647    857.79 111659.18
         Nb         9.427            3.647    857.79 111659.18
         Nb         9.427            3.647    857.79 111659.18
         Nb         9.427            3.647    857.79 111659.18
         Nb         9.427            3.647    857.79 111659.18
         F          2.908            2.173     14.27    244.15
         F          2.018            2.173     14.27    244.15
         F          2.018            2.173     14.27    244.15
         F          2.018            2.173     14.27    244.15
         F          2.850            2.173     14.27    244.15
         F          2.038            2.173     14.27    244.15
         F          2.038            2.173     14.27    244.15
         F          2.038            2.173     14.27    244.15
         F          2.038            2.173     14.27    244.15
         F          2.038            2.173     14.27    244.15
         F          2.038            2.173     14.27    244.15
         F          2.850            2.173     14.27    244.15
         F          2.018            2.173     14.27    244.15
         F          2.018            2.173     14.27    244.15
         F          2.018            2.173     14.27    244.15
         F          2.908            2.173     14.27    244.15

         Molecular C6 ( Ry / a.u.^6 ) =     52655.74


   Crystallographic axes

     site n.     atom                  positions (cryst. coord.)
         1        Nb     tau(   1) = (  0.1456229 -0.1456229 -0.1038899  )
         2        Nb     tau(   2) = (  0.1456229  0.2912458 -0.1038899  )
         3        Nb     tau(   3) = ( -0.2912458 -0.1456229 -0.1038899  )
         4        Nb     tau(   4) = ( -0.1456229  0.1456229  0.1038899  )
         5        Nb     tau(   5) = ( -0.1456229 -0.2912458  0.1038899  )
         6        Nb     tau(   6) = (  0.2912458  0.1456229  0.1038899  )
         7        F      tau(   7) = (  0.0000000  0.0000000 -0.1685836  )
         8        F      tau(   8) = (  0.4930599 -0.4930599 -0.1492724  )
         9        F      tau(   9) = (  0.4930599 -0.0138802 -0.1492724  )
        10        F      tau(  10) = (  0.0138802 -0.4930599 -0.1492724  )
        11        F      tau(  11) = (  0.3333333 -0.3333333 -0.0572151  )
        12        F      tau(  12) = ( -0.1618399  0.1618399 -0.0486576  )
        13        F      tau(  13) = ( -0.1618399 -0.3236798 -0.0486576  )
        14        F      tau(  14) = (  0.3236798  0.1618399 -0.0486576  )
        15        F      tau(  15) = (  0.1618399 -0.1618399  0.0486576  )
        16        F      tau(  16) = (  0.1618399  0.3236798  0.0486576  )
        17        F      tau(  17) = ( -0.3236798 -0.1618399  0.0486576  )
        18        F      tau(  18) = ( -0.3333333  0.3333333  0.0572151  )
        19        F      tau(  19) = ( -0.4930599  0.4930599  0.1492724  )
        20        F      tau(  20) = ( -0.4930599  0.0138802  0.1492724  )
        21        F      tau(  21) = ( -0.0138802  0.4930599  0.1492724  )
        22        F      tau(  22) = (  0.0000000  0.0000000  0.1685836  )

     number of k points=     7  Gaussian smearing, width (Ry)=  0.0037
                       cart. coord. in units 2pi/alat
        k(    1) = (   0.0000000   0.0000000   0.0000000), wk =   0.0555556
        k(    2) = (  -0.0962250   0.1666667   0.0000000), wk =   0.3333333
        k(    3) = (  -0.1924501   0.3333333   0.0000000), wk =   0.3333333
        k(    4) = (   0.2886751  -0.5000000   0.0000000), wk =   0.1666667
        k(    5) = (  -0.0000000   0.3333333   0.0000000), wk =   0.3333333
        k(    6) = (  -0.0962250   0.5000000   0.0000000), wk =   0.6666667
        k(    7) = (  -0.0000000   0.6666667   0.0000000), wk =   0.1111111

                       cryst. coord.
        k(    1) = (   0.0000000   0.0000000   0.0000000), wk =   0.0555556
        k(    2) = (   0.0000000   0.1666667   0.0000000), wk =   0.3333333
        k(    3) = (   0.0000000   0.3333333   0.0000000), wk =   0.3333333
        k(    4) = (  -0.0000000  -0.5000000   0.0000000), wk =   0.1666667
        k(    5) = (   0.1666667   0.1666667   0.0000000), wk =   0.3333333
        k(    6) = (   0.1666667   0.3333333   0.0000000), wk =   0.6666667
        k(    7) = (   0.3333333   0.3333333   0.0000000), wk =   0.1111111

     Dense  grid:   668819 G-vectors     FFT dimensions: (  72,  72, 300)

     Dynamical RAM for                 wfc:       4.54 MB

     Dynamical RAM for     wfc (w. buffer):       4.54 MB

     Dynamical RAM for           str. fact:       0.64 MB

     Dynamical RAM for           local pot:       0.00 MB

     Dynamical RAM for          nlocal pot:       9.40 MB

     Dynamical RAM for                qrad:       3.21 MB

     Dynamical RAM for          rho,v,vnew:       2.14 MB

     Dynamical RAM for               rhoin:       0.71 MB

     Dynamical RAM for            rho*nmix:       5.10 MB

     Dynamical RAM for           G-vectors:       1.36 MB

     Dynamical RAM for          h,s,v(r/c):       2.38 MB

     Dynamical RAM for          <psi|beta>:       0.41 MB

     Dynamical RAM for                 psi:       9.08 MB

     Dynamical RAM for                hpsi:       9.08 MB

     Dynamical RAM for      wfcinit/wfcrot:       9.38 MB

     Estimated static dynamical RAM per process >      24.94 MB

     Estimated max dynamical RAM per process >      51.00 MB

     Estimated total dynamical RAM >      17.37 GB

     Initial potential from superposition of free atoms

     starting charge     189.3015, renormalised to     190.0000

     negative rho (up, down):  1.049E-03 0.000E+00
     Starting wfcs are random

     total cpu time spent up to now is        2.9 secs

     per-process dynamical memory:   168.5 Mb

     Self-consistent Calculation

     iteration #  1     ecut=   100.00 Ry     beta= 0.70
     Davidson diagonalization with overlap

---- Real-time Memory Report at c_bands before calling an iterative solver
           236 MiB given to the printing process from OS
           164 MiB allocation reported by mallinfo(arena+hblkhd)
        318969 MiB available memory on the node where the printing process lives
------------------
     ethr =  1.00E-02,  avg # of iterations = 15.7

     Threshold (ethr) on eigenvalues was too large:
     Diagonalizing with lowered threshold

     Davidson diagonalization with overlap

---- Real-time Memory Report at c_bands before calling an iterative solver
           277 MiB given to the printing process from OS
           166 MiB allocation reported by mallinfo(arena+hblkhd)
        316950 MiB available memory on the node where the printing process lives
------------------
     ethr =  8.20E-04,  avg # of iterations =  9.4

     negative rho (up, down):  1.906E-04 0.000E+00

     total cpu time spent up to now is        6.8 secs

     total energy              =   -1450.16190067 Ry
     estimated scf accuracy    <       1.83779497 Ry

     iteration #  2     ecut=   100.00 Ry     beta= 0.70
     Davidson diagonalization with overlap

---- Real-time Memory Report at c_bands before calling an iterative solver
           279 MiB given to the printing process from OS
           162 MiB allocation reported by mallinfo(arena+hblkhd)
        319209 MiB available memory on the node where the printing process lives
------------------
     ethr =  9.67E-04,  avg # of iterations =  5.7

     negative rho (up, down):  1.030E-04 0.000E+00

     total cpu time spent up to now is        7.8 secs

     total energy              =   -1450.34630409 Ry
     estimated scf accuracy    <       2.27768857 Ry

     iteration #  3     ecut=   100.00 Ry     beta= 0.70
     Davidson diagonalization with overlap

---- Real-time Memory Report at c_bands before calling an iterative solver
           284 MiB given to the printing process from OS
           163 MiB allocation reported by mallinfo(arena+hblkhd)
        318998 MiB available memory on the node where the printing process lives
------------------
     ethr =  9.67E-04,  avg # of iterations =  2.7

     negative rho (up, down):  3.398E-05 0.000E+00

     total cpu time spent up to now is        8.6 secs

     total energy              =   -1450.87586999 Ry
     estimated scf accuracy    <       0.09762883 Ry

     iteration #  4     ecut=   100.00 Ry     beta= 0.70
     Davidson diagonalization with overlap

---- Real-time Memory Report at c_bands before calling an iterative solver
           284 MiB given to the printing process from OS
           163 MiB allocation reported by mallinfo(arena+hblkhd)
        318905 MiB available memory on the node where the printing process lives
------------------
     ethr =  5.14E-05,  avg # of iterations =  8.1

     negative rho (up, down):  5.962E-06 0.000E+00

     total cpu time spent up to now is       10.4 secs

     total energy              =   -1450.89531923 Ry
     estimated scf accuracy    <       0.01660082 Ry

     iteration #  5     ecut=   100.00 Ry     beta= 0.70
     Davidson diagonalization with overlap

---- Real-time Memory Report at c_bands before calling an iterative solver
           286 MiB given to the printing process from OS
           164 MiB allocation reported by mallinfo(arena+hblkhd)
        318911 MiB available memory on the node where the printing process lives
------------------
     ethr =  8.74E-06,  avg # of iterations =  9.4

     negative rho (up, down):  2.156E-07 0.000E+00

     total cpu time spent up to now is       11.7 secs

     total energy              =   -1450.89777936 Ry
     estimated scf accuracy    <       0.00972281 Ry

     iteration #  6     ecut=   100.00 Ry     beta= 0.70
     Davidson diagonalization with overlap

---- Real-time Memory Report at c_bands before calling an iterative solver
           288 MiB given to the printing process from OS
           165 MiB allocation reported by mallinfo(arena+hblkhd)
        318886 MiB available memory on the node where the printing process lives
------------------
     ethr =  5.12E-06,  avg # of iterations =  5.9

     total cpu time spent up to now is       12.8 secs

     total energy              =   -1450.89972404 Ry
     estimated scf accuracy    <       0.00034669 Ry

     iteration #  7     ecut=   100.00 Ry     beta= 0.70
     Davidson diagonalization with overlap

---- Real-time Memory Report at c_bands before calling an iterative solver
           289 MiB given to the printing process from OS
           165 MiB allocation reported by mallinfo(arena+hblkhd)
        318909 MiB available memory on the node where the printing process lives
------------------
     ethr =  1.82E-07,  avg # of iterations =  9.7

     total cpu time spent up to now is       14.0 secs

     total energy              =   -1450.89982502 Ry
     estimated scf accuracy    <       0.00009078 Ry

     iteration #  8     ecut=   100.00 Ry     beta= 0.70
     Davidson diagonalization with overlap

---- Real-time Memory Report at c_bands before calling an iterative solver
           289 MiB given to the printing process from OS
           166 MiB allocation reported by mallinfo(arena+hblkhd)
        318861 MiB available memory on the node where the printing process lives
------------------
     ethr =  4.78E-08,  avg # of iterations =  8.3

     total cpu time spent up to now is       15.2 secs

     total energy              =   -1450.89983996 Ry
     estimated scf accuracy    <       0.00000681 Ry

     iteration #  9     ecut=   100.00 Ry     beta= 0.70
     Davidson diagonalization with overlap

---- Real-time Memory Report at c_bands before calling an iterative solver
           291 MiB given to the printing process from OS
           166 MiB allocation reported by mallinfo(arena+hblkhd)
        318891 MiB available memory on the node where the printing process lives
------------------
     ethr =  3.59E-09,  avg # of iterations =  8.3

     total cpu time spent up to now is       16.4 secs

     total energy              =   -1450.89984160 Ry
     estimated scf accuracy    <       0.00000040 Ry

     iteration # 10     ecut=   100.00 Ry     beta= 0.70
     Davidson diagonalization with overlap

---- Real-time Memory Report at c_bands before calling an iterative solver
           291 MiB given to the printing process from OS
           167 MiB allocation reported by mallinfo(arena+hblkhd)
        318829 MiB available memory on the node where the printing process lives
------------------
     ethr =  2.10E-10,  avg # of iterations =  8.9

     total cpu time spent up to now is       17.7 secs

     total energy              =   -1450.89984166 Ry
     estimated scf accuracy    <       0.00000011 Ry

     iteration # 11     ecut=   100.00 Ry     beta= 0.70
     Davidson diagonalization with overlap

---- Real-time Memory Report at c_bands before calling an iterative solver
           291 MiB given to the printing process from OS
           167 MiB allocation reported by mallinfo(arena+hblkhd)
        318884 MiB available memory on the node where the printing process lives
------------------
     ethr =  5.71E-11,  avg # of iterations =  6.1

     total cpu time spent up to now is       18.9 secs

     total energy              =   -1450.89984168 Ry
     estimated scf accuracy    <          3.7E-09 Ry

     iteration # 12     ecut=   100.00 Ry     beta= 0.70
     Davidson diagonalization with overlap

---- Real-time Memory Report at c_bands before calling an iterative solver
           291 MiB given to the printing process from OS
           167 MiB allocation reported by mallinfo(arena+hblkhd)
        318853 MiB available memory on the node where the printing process lives
------------------
     ethr =  1.96E-12,  avg # of iterations =  9.6

     total cpu time spent up to now is       20.1 secs

     total energy              =   -1450.89984168 Ry
     estimated scf accuracy    <          6.6E-10 Ry

     iteration # 13     ecut=   100.00 Ry     beta= 0.70
     Davidson diagonalization with overlap

---- Real-time Memory Report at c_bands before calling an iterative solver
           293 MiB given to the printing process from OS
           167 MiB allocation reported by mallinfo(arena+hblkhd)
        318875 MiB available memory on the node where the printing process lives
------------------
     ethr =  3.48E-13,  avg # of iterations =  6.3

     total cpu time spent up to now is       21.2 secs

     total energy              =   -1450.89984168 Ry
     estimated scf accuracy    <          5.3E-11 Ry

     iteration # 14     ecut=   100.00 Ry     beta= 0.70
     Davidson diagonalization with overlap

---- Real-time Memory Report at c_bands before calling an iterative solver
           293 MiB given to the printing process from OS
           167 MiB allocation reported by mallinfo(arena+hblkhd)
        318860 MiB available memory on the node where the printing process lives
------------------
     ethr =  1.00E-13,  avg # of iterations =  5.4

     total cpu time spent up to now is       22.1 secs

     End of self-consistent calculation

          k = 0.0000 0.0000 0.0000 ( 83541 PWs)   bands (ev):

   -55.6236 -55.6236 -55.3589 -55.3589 -55.3589 -55.3589 -32.7650 -32.7646
   -32.2174 -32.2174 -32.2166 -32.2166 -32.0968 -32.0934 -31.5881 -31.5881
   -31.5875 -31.5875 -31.1614 -31.1613 -30.9342 -30.9342 -30.9341 -30.9341
   -25.1754 -25.1641 -24.5824 -24.5778 -24.5710 -24.5077 -24.4187 -24.4187
   -24.3862 -24.3862 -23.8572 -23.7959 -23.7570 -23.7570 -23.7312 -23.7312
    -7.7548  -7.7366  -7.7366  -7.6826  -7.6826  -7.6626  -7.4274  -7.3691
    -7.1403  -7.0478  -7.0478  -7.0252  -7.0252  -6.8643  -6.8061  -6.7478
    -6.7478  -6.7420  -6.5920  -6.5920  -6.4446  -6.4308  -6.4308  -6.3895
    -6.3895  -6.2957  -5.7993  -5.7979  -5.7979  -5.7934  -5.7934  -5.6764
    -5.6102  -5.5647  -5.5024  -5.4883  -5.4883  -5.4782  -5.4782  -5.1713
    -5.0954  -5.0954  -4.9921  -4.9921  -4.8769  -4.8769  -4.8714  -4.8714
    -1.2373  -1.1918  -0.5125  -0.5125  -0.4695  -0.4695   1.0878   1.1221
     2.2355   2.2355   2.2499   2.2499   2.6447   2.7622   3.1320   3.1320
     3.1549   3.1549   3.4585   3.8891   3.9562   3.9562   4.0211   4.0333
     4.0579   4.0579

     occupation numbers 
     1.0000   1.0000   1.0000   1.0000   1.0000   1.0000   1.0000   1.0000
     1.0000   1.0000   1.0000   1.0000   1.0000   1.0000   1.0000   1.0000
     1.0000   1.0000   1.0000   1.0000   1.0000   1.0000   1.0000   1.0000
     1.0000   1.0000   1.0000   1.0000   1.0000   1.0000   1.0000   1.0000
     1.0000   1.0000   1.0000   1.0000   1.0000   1.0000   1.0000   1.0000
     1.0000   1.0000   1.0000   1.0000   1.0000   1.0000   1.0000   1.0000
     1.0000   1.0000   1.0000   1.0000   1.0000   1.0000   1.0000   1.0000
     1.0000   1.0000   1.0000   1.0000   1.0000   1.0000   1.0000   1.0000
     1.0000   1.0000   1.0000   1.0000   1.0000   1.0000   1.0000   1.0000
     1.0000   1.0000   1.0000   1.0000   1.0000   1.0000   1.0000   1.0000
     1.0000   1.0000   1.0000   1.0000   1.0000   1.0000   1.0000   1.0000
     1.0000   1.0000   1.0000   1.0000   1.0000   1.0000   0.0000   0.0000
     0.0000   0.0000   0.0000   0.0000   0.0000   0.0000   0.0000   0.0000
     0.0000   0.0000   0.0000   0.0000   0.0000   0.0000   0.0000   0.0000
     0.0000   0.0000

          k =-0.0962 0.1667 0.0000 ( 83555 PWs)   bands (ev):

   -55.6203 -55.6202 -55.3624 -55.3624 -55.3589 -55.3589 -32.7221 -32.7217
   -32.2085 -32.2077 -32.1812 -32.1804 -32.0815 -32.0781 -31.6100 -31.6094
   -31.5919 -31.5913 -31.1930 -31.1930 -31.0056 -31.0053 -30.9460 -30.9459
   -25.1335 -25.1237 -24.6039 -24.5989 -24.5378 -24.4752 -24.4035 -24.3747
   -24.3712 -24.3373 -23.8775 -23.8250 -23.7940 -23.7690 -23.7683 -23.7486
    -7.7583  -7.7333  -7.6676  -7.6330  -7.5426  -7.5038  -7.4461  -7.3843
    -7.2601  -7.1821  -7.1137  -7.0606  -6.8944  -6.8524  -6.8019  -6.7682
    -6.6030  -6.5907  -6.5497  -6.5078  -6.4905  -6.4559  -6.4413  -6.3514
    -6.3450  -6.2661  -5.9191  -5.8899  -5.8373  -5.8312  -5.7665  -5.6415
    -5.6354  -5.5889  -5.5593  -5.4936  -5.4815  -5.4650  -5.4501  -5.2433
    -5.1704  -5.1300  -5.0927  -5.0384  -4.9193  -4.8761  -4.8644  -4.8240
    -1.2759  -1.2395  -0.4774  -0.4673  -0.4409  -0.4251   1.0263   1.0595
     2.2357   2.2412   2.2504   2.2567   2.7050   2.8190   3.0048   3.0313
     3.0781   3.1069   3.6670   3.7374   3.7603   3.7642   3.8449   4.1007
     4.1481   4.1520

     occupation numbers 
     1.0000   1.0000   1.0000   1.0000   1.0000   1.0000   1.0000   1.0000
     1.0000   1.0000   1.0000   1.0000   1.0000   1.0000   1.0000   1.0000
     1.0000   1.0000   1.0000   1.0000   1.0000   1.0000   1.0000   1.0000
     1.0000   1.0000   1.0000   1.0000   1.0000   1.0000   1.0000   1.0000
     1.0000   1.0000   1.0000   1.0000   1.0000   1.0000   1.0000   1.0000
     1.0000   1.0000   1.0000   1.0000   1.0000   1.0000   1.0000   1.0000
     1.0000   1.0000   1.0000   1.0000   1.0000   1.0000   1.0000   1.0000
     1.0000   1.0000   1.0000   1.0000   1.0000   1.0000   1.0000   1.0000
     1.0000   1.0000   1.0000   1.0000   1.0000   1.0000   1.0000   1.0000
     1.0000   1.0000   1.0000   1.0000   1.0000   1.0000   1.0000   1.0000
     1.0000   1.0000   1.0000   1.0000   1.0000   1.0000   1.0000   1.0000
     1.0000   1.0000   1.0000   1.0000   1.0000   1.0000   0.0001   0.0000
     0.0000   0.0000   0.0000   0.0000   0.0000   0.0000   0.0000   0.0000
     0.0000   0.0000   0.0000   0.0000   0.0000   0.0000   0.0000   0.0000
     0.0000   0.0000

          k =-0.1925 0.3333 0.0000 ( 83585 PWs)   bands (ev):

   -55.6133 -55.6133 -55.3698 -55.3698 -55.3589 -55.3589 -32.6305 -32.6299
   -32.1800 -32.1792 -32.0964 -32.0955 -32.0464 -32.0433 -31.6617 -31.6610
   -31.6046 -31.6039 -31.2701 -31.2700 -31.1605 -31.1601 -30.9627 -30.9626
   -25.0350 -25.0287 -24.6695 -24.6678 -24.4738 -24.4503 -24.3107 -24.2904
   -24.2495 -24.2099 -23.9644 -23.9358 -23.8951 -23.8744 -23.7706 -23.7673
    -7.7962  -7.7429  -7.6244  -7.5179  -7.5068  -7.3729  -7.2068  -7.2040
    -7.1378  -7.1314  -7.0428  -6.9887  -6.8789  -6.8729  -6.8068  -6.6983
    -6.6830  -6.6215  -6.5618  -6.5449  -6.5087  -6.4837  -6.3756  -6.3178
    -6.2457  -6.1950  -6.0630  -5.9909  -5.9527  -5.8239  -5.7794  -5.7066
    -5.6426  -5.6260  -5.5829  -5.5378  -5.5024  -5.4772  -5.4757  -5.3666
    -5.3225  -5.1838  -5.1769  -5.1144  -4.9693  -4.9290  -4.8369  -4.7746
    -1.3560  -1.3405  -0.3992  -0.3794  -0.3692  -0.3337   0.8980   0.9289
     2.2286   2.2467   2.2472   2.2609   2.7136   2.7553   2.8835   2.9216
     2.9456   2.9500   3.4384   3.5022   3.5110   3.5148   4.0294   4.0473
     4.1273   4.1469

     occupation numbers 
     1.0000   1.0000   1.0000   1.0000   1.0000   1.0000   1.0000   1.0000
     1.0000   1.0000   1.0000   1.0000   1.0000   1.0000   1.0000   1.0000
     1.0000   1.0000   1.0000   1.0000   1.0000   1.0000   1.0000   1.0000
     1.0000   1.0000   1.0000   1.0000   1.0000   1.0000   1.0000   1.0000
     1.0000   1.0000   1.0000   1.0000   1.0000   1.0000   1.0000   1.0000
     1.0000   1.0000   1.0000   1.0000   1.0000   1.0000   1.0000   1.0000
     1.0000   1.0000   1.0000   1.0000   1.0000   1.0000   1.0000   1.0000
     1.0000   1.0000   1.0000   1.0000   1.0000   1.0000   1.0000   1.0000
     1.0000   1.0000   1.0000   1.0000   1.0000   1.0000   1.0000   1.0000
     1.0000   1.0000   1.0000   1.0000   1.0000   1.0000   1.0000   1.0000
     1.0000   1.0000   1.0000   1.0000   1.0000   1.0000   1.0000   1.0000
     1.0000   1.0000   1.0000   1.0000   1.0000   1.0000   0.4808   0.1783
     0.0000   0.0000   0.0000   0.0000   0.0000   0.0000   0.0000   0.0000
     0.0000   0.0000   0.0000   0.0000   0.0000   0.0000   0.0000   0.0000
     0.0000   0.0000

          k = 0.2887-0.5000 0.0000 ( 83612 PWs)   bands (ev):

   -55.6097 -55.6097 -55.3736 -55.3736 -55.3589 -55.3589 -32.5822 -32.5816
   -32.1552 -32.1544 -32.0442 -32.0432 -32.0257 -32.0226 -31.6946 -31.6940
   -31.6165 -31.6160 -31.3153 -31.3152 -31.2467 -31.2462 -30.9686 -30.9685
   -24.9679 -24.9651 -24.7222 -24.7181 -24.4546 -24.4506 -24.2077 -24.1520
   -24.1427 -24.0820 -24.0670 -24.0662 -23.9916 -23.9914 -23.7729 -23.7677
    -7.8338  -7.8334  -7.6509  -7.4961  -7.2679  -7.1786  -7.1174  -7.0496
    -7.0243  -6.9983  -6.9591  -6.9516  -6.9222  -6.9218  -6.8719  -6.7899
    -6.7092  -6.6419  -6.5810  -6.5504  -6.5108  -6.4334  -6.4149  -6.2817
    -6.2525  -6.2404  -6.2188  -6.1341  -5.9324  -5.8225  -5.7850  -5.7233
    -5.6402  -5.6160  -5.6000  -5.5730  -5.5451  -5.5382  -5.4516  -5.4051
    -5.3020  -5.2128  -5.1911  -5.1482  -5.0050  -4.9733  -4.8279  -4.7554
    -1.3965  -1.3949  -0.3529  -0.3475  -0.3142  -0.2871   0.8311   0.8596
     2.1995   2.2192   2.2551   2.2682   2.6002   2.6331   2.8317   2.8423
     2.9591   3.0307   3.3026   3.3269   3.4372   3.4416   3.9678   3.9767
     4.1364   4.1364

     occupation numbers 
     1.0000   1.0000   1.0000   1.0000   1.0000   1.0000   1.0000   1.0000
     1.0000   1.0000   1.0000   1.0000   1.0000   1.0000   1.0000   1.0000
     1.0000   1.0000   1.0000   1.0000   1.0000   1.0000   1.0000   1.0000
     1.0000   1.0000   1.0000   1.0000   1.0000   1.0000   1.0000   1.0000
     1.0000   1.0000   1.0000   1.0000   1.0000   1.0000   1.0000   1.0000
     1.0000   1.0000   1.0000   1.0000   1.0000   1.0000   1.0000   1.0000
     1.0000   1.0000   1.0000   1.0000   1.0000   1.0000   1.0000   1.0000
     1.0000   1.0000   1.0000   1.0000   1.0000   1.0000   1.0000   1.0000
     1.0000   1.0000   1.0000   1.0000   1.0000   1.0000   1.0000   1.0000
     1.0000   1.0000   1.0000   1.0000   1.0000   1.0000   1.0000   1.0000
     1.0000   1.0000   1.0000   1.0000   1.0000   1.0000   1.0000   1.0000
     1.0000   1.0000   1.0000   1.0000   1.0000   1.0000   0.9674   0.8502
     0.0000   0.0000   0.0000   0.0000   0.0000   0.0000   0.0000   0.0000
     0.0000   0.0000   0.0000   0.0000   0.0000   0.0000   0.0000   0.0000
     0.0000   0.0000

          k =-0.0000 0.3333 0.0000 ( 83628 PWs)   bands (ev):

   -55.6151 -55.6151 -55.3679 -55.3679 -55.3589 -55.3589 -32.6525 -32.6520
   -32.1912 -32.1905 -32.1218 -32.1210 -32.0556 -32.0524 -31.6462 -31.6457
   -31.6005 -31.6000 -31.2530 -31.2529 -31.0986 -31.0983 -30.9753 -30.9751
   -25.0623 -25.0549 -24.6495 -24.6483 -24.4729 -24.4161 -24.3901 -24.3581
   -24.2655 -24.2412 -23.9407 -23.9170 -23.8177 -23.8068 -23.7982 -23.7909
    -7.7581  -7.7349  -7.5730  -7.5600  -7.5174  -7.4276  -7.3106  -7.2616
    -7.2488  -7.1541  -7.1153  -7.0354  -6.9999  -6.7855  -6.6791  -6.6500
    -6.6175  -6.5896  -6.5425  -6.5373  -6.4888  -6.4764  -6.3960  -6.3878
    -6.2767  -6.2118  -6.0069  -5.9544  -5.9017  -5.8821  -5.7877  -5.6747
    -5.6453  -5.6157  -5.5998  -5.4983  -5.4723  -5.4664  -5.4507  -5.3485
    -5.3031  -5.2913  -5.1509  -5.0450  -4.9209  -4.8712  -4.8648  -4.8250
    -1.3341  -1.3139  -0.4280  -0.4100  -0.3805  -0.3507   0.9313   0.9631
     2.2244   2.2287   2.2651   2.2708   2.7699   2.8146   2.8571   2.9231
     3.0002   3.0244   3.4909   3.5016   3.6071   3.6665   3.8963   3.9038
     4.1350   4.3101

     occupation numbers 
     1.0000   1.0000   1.0000   1.0000   1.0000   1.0000   1.0000   1.0000
     1.0000   1.0000   1.0000   1.0000   1.0000   1.0000   1.0000   1.0000
     1.0000   1.0000   1.0000   1.0000   1.0000   1.0000   1.0000   1.0000
     1.0000   1.0000   1.0000   1.0000   1.0000   1.0000   1.0000   1.0000
     1.0000   1.0000   1.0000   1.0000   1.0000   1.0000   1.0000   1.0000
     1.0000   1.0000   1.0000   1.0000   1.0000   1.0000   1.0000   1.0000
     1.0000   1.0000   1.0000   1.0000   1.0000   1.0000   1.0000   1.0000
     1.0000   1.0000   1.0000   1.0000   1.0000   1.0000   1.0000   1.0000
     1.0000   1.0000   1.0000   1.0000   1.0000   1.0000   1.0000   1.0000
     1.0000   1.0000   1.0000   1.0000   1.0000   1.0000   1.0000   1.0000
     1.0000   1.0000   1.0000   1.0000   1.0000   1.0000   1.0000   1.0000
     1.0000   1.0000   1.0000   1.0000   1.0000   1.0000   0.1606   0.0294
     0.0000   0.0000   0.0000   0.0000   0.0000   0.0000   0.0000   0.0000
     0.0000   0.0000   0.0000   0.0000   0.0000   0.0000   0.0000   0.0000
     0.0000   0.0000

          k =-0.0962 0.5000 0.0000 ( 83565 PWs)   bands (ev):

   -55.6097 -55.6097 -55.3736 -55.3736 -55.3590 -55.3590 -32.5742 -32.5736
   -32.1570 -32.1563 -32.0689 -32.0681 -32.0260 -32.0230 -31.6824 -31.6819
   -31.6188 -31.6183 -31.3127 -31.3125 -31.2063 -31.2059 -31.0027 -31.0026
   -24.9677 -24.9639 -24.7213 -24.7192 -24.4129 -24.4006 -24.2794 -24.2707
   -24.1472 -24.1342 -24.0346 -24.0330 -23.9160 -23.9068 -23.8089 -23.8026
    -7.8104  -7.7861  -7.6024  -7.4786  -7.3974  -7.2737  -7.2200  -7.1743
    -7.1006  -6.9924  -6.9702  -6.9387  -6.9021  -6.8294  -6.7830  -6.6491
    -6.6371  -6.5667  -6.5576  -6.5197  -6.4955  -6.4648  -6.4271  -6.3322
    -6.2641  -6.2548  -6.1314  -6.0651  -5.9533  -5.8589  -5.7915  -5.7531
    -5.7307  -5.6846  -5.6269  -5.5608  -5.5211  -5.4998  -5.4853  -5.4627
    -5.3161  -5.2656  -5.1337  -5.0627  -4.9661  -4.9242  -4.8737  -4.8005
    -1.3923  -1.3905  -0.3772  -0.3718  -0.2903  -0.2716   0.8333   0.8624
     2.1881   2.1935   2.2797   2.2820   2.6837   2.6988   2.8574   2.8735
     2.9839   3.0408   3.2959   3.3069   3.3829   3.4247   3.7997   3.8194
     4.2776   4.3443

     occupation numbers 
     1.0000   1.0000   1.0000   1.0000   1.0000   1.0000   1.0000   1.0000
     1.0000   1.0000   1.0000   1.0000   1.0000   1.0000   1.0000   1.0000
     1.0000   1.0000   1.0000   1.0000   1.0000   1.0000   1.0000   1.0000
     1.0000   1.0000   1.0000   1.0000   1.0000   1.0000   1.0000   1.0000
     1.0000   1.0000   1.0000   1.0000   1.0000   1.0000   1.0000   1.0000
     1.0000   1.0000   1.0000   1.0000   1.0000   1.0000   1.0000   1.0000
     1.0000   1.0000   1.0000   1.0000   1.0000   1.0000   1.0000   1.0000
     1.0000   1.0000   1.0000   1.0000   1.0000   1.0000   1.0000   1.0000
     1.0000   1.0000   1.0000   1.0000   1.0000   1.0000   1.0000   1.0000
     1.0000   1.0000   1.0000   1.0000   1.0000   1.0000   1.0000   1.0000
     1.0000   1.0000   1.0000   1.0000   1.0000   1.0000   1.0000   1.0000
     1.0000   1.0000   1.0000   1.0000   1.0000   1.0000   0.9625   0.8308
     0.0000   0.0000   0.0000   0.0000   0.0000   0.0000   0.0000   0.0000
     0.0000   0.0000   0.0000   0.0000   0.0000   0.0000   0.0000   0.0000
     0.0000   0.0000

          k =-0.0000 0.6667 0.0000 ( 83670 PWs)   bands (ev):

   -55.6078 -55.6078 -55.3756 -55.3756 -55.3590 -55.3590 -32.5377 -32.5369
   -32.1223 -32.1223 -32.0983 -32.0983 -32.0166 -32.0137 -31.6770 -31.6770
   -31.6338 -31.6338 -31.3111 -31.3110 -31.2236 -31.2236 -31.0454 -31.0454
   -24.9191 -24.9167 -24.7607 -24.7607 -24.3170 -24.2886 -24.2886 -24.2505
   -24.2505 -24.2319 -23.9602 -23.9602 -23.9047 -23.9034 -23.9034 -23.8654
    -7.8099  -7.7199  -7.5818  -7.5818  -7.3377  -7.3377  -7.1396  -7.1396
    -7.1222  -7.0766  -6.9259  -6.9259  -6.7082  -6.7082  -6.6996  -6.6805
    -6.6274  -6.6274  -6.5641  -6.4399  -6.4399  -6.4160  -6.3875  -6.3875
    -6.3649  -6.1465  -6.1465  -6.1159  -5.9467  -5.9467  -5.8531  -5.8310
    -5.8310  -5.7239  -5.6698  -5.6698  -5.5473  -5.5473  -5.4810  -5.4070
    -5.2780  -5.2780  -5.0424  -5.0424  -4.9504  -4.9141  -4.9141  -4.8663
    -1.4146  -1.4060  -0.3727  -0.3727  -0.2416  -0.2416   0.8017   0.8299
     2.1664   2.1664   2.2927   2.2927   2.7768   2.7768   2.8245   2.8245
     3.1016   3.1075   3.1539   3.1720   3.2814   3.2814   3.7097   3.7097
     4.4305   4.4305

     occupation numbers 
     1.0000   1.0000   1.0000   1.0000   1.0000   1.0000   1.0000   1.0000
     1.0000   1.0000   1.0000   1.0000   1.0000   1.0000   1.0000   1.0000
     1.0000   1.0000   1.0000   1.0000   1.0000   1.0000   1.0000   1.0000
     1.0000   1.0000   1.0000   1.0000   1.0000   1.0000   1.0000   1.0000
     1.0000   1.0000   1.0000   1.0000   1.0000   1.0000   1.0000   1.0000
     1.0000   1.0000   1.0000   1.0000   1.0000   1.0000   1.0000   1.0000
     1.0000   1.0000   1.0000   1.0000   1.0000   1.0000   1.0000   1.0000
     1.0000   1.0000   1.0000   1.0000   1.0000   1.0000   1.0000   1.0000
     1.0000   1.0000   1.0000   1.0000   1.0000   1.0000   1.0000   1.0000
     1.0000   1.0000   1.0000   1.0000   1.0000   1.0000   1.0000   1.0000
     1.0000   1.0000   1.0000   1.0000   1.0000   1.0000   1.0000   1.0000
     1.0000   1.0000   1.0000   1.0000   1.0000   1.0000   0.9963   0.9698
     0.0000   0.0000   0.0000   0.0000   0.0000   0.0000   0.0000   0.0000
     0.0000   0.0000   0.0000   0.0000   0.0000   0.0000   0.0000   0.0000
     0.0000   0.0000

     the Fermi energy is     0.8963 ev

!    total energy              =   -1450.89984168 Ry
     estimated scf accuracy    <          8.1E-13 Ry
     smearing contrib. (-TS)   =      -0.00157497 Ry
     internal energy E=F+TS    =   -1450.89826671 Ry

     The total energy is F=E-TS. E is the sum of the following terms:
     one-electron contribution =  -12821.21519283 Ry
     hartree contribution      =    6443.13899150 Ry
     xc contribution           =    -230.61778864 Ry
     ewald contribution        =    5157.95196059 Ry
     DFT-D3 Dispersion         =      -0.15623733 Ry

     convergence has been achieved in  14 iterations

     Forces acting on atoms (cartesian axes, Ry/au):

     atom    1 type  1   force =    -0.00014325   -0.00000000    0.00028394
     atom    2 type  1   force =     0.00007162   -0.00012406    0.00028394
     atom    3 type  1   force =     0.00007162    0.00012406    0.00028394
     atom    4 type  1   force =     0.00014325    0.00000000   -0.00028394
     atom    5 type  1   force =    -0.00007162    0.00012406   -0.00028394
     atom    6 type  1   force =    -0.00007162   -0.00012406   -0.00028394
     atom    7 type  2   force =    -0.00000000   -0.00000000   -0.00008269
     atom    8 type  2   force =    -0.00001137   -0.00000000   -0.00019394
     atom    9 type  2   force =     0.00000568   -0.00000985   -0.00019394
     atom   10 type  2   force =     0.00000568    0.00000985   -0.00019394
     atom   11 type  2   force =    -0.00000000   -0.00000000    0.00004465
     atom   12 type  2   force =    -0.00009460    0.00000000   -0.00007608
     atom   13 type  2   force =     0.00004730   -0.00008193   -0.00007608
     atom   14 type  2   force =     0.00004730    0.00008193   -0.00007608
     atom   15 type  2   force =     0.00009460    0.00000000    0.00007608
     atom   16 type  2   force =    -0.00004730    0.00008193    0.00007608
     atom   17 type  2   force =    -0.00004730   -0.00008193    0.00007608
     atom   18 type  2   force =     0.00000000   -0.00000000   -0.00004465
     atom   19 type  2   force =     0.00001137   -0.00000000    0.00019394
     atom   20 type  2   force =    -0.00000568    0.00000985    0.00019394
     atom   21 type  2   force =    -0.00000568   -0.00000985    0.00019394
     atom   22 type  2   force =    -0.00000000   -0.00000000    0.00008269
     The non-local contrib.  to forces
     atom    1 type  1   force =    -0.37132984    0.00000000   -0.05526113
     atom    2 type  1   force =     0.18566492   -0.32158107   -0.05526113
     atom    3 type  1   force =     0.18566492    0.32158107   -0.05526113
     atom    4 type  1   force =     0.37132984    0.00000000    0.05526113
     atom    5 type  1   force =    -0.18566492    0.32158107    0.05526113
     atom    6 type  1   force =    -0.18566492   -0.32158107    0.05526113
     atom    7 type  2   force =    -0.00000000   -0.00000000    1.50967421
     atom    8 type  2   force =    -0.58619289   -0.00000000    0.96389690
     atom    9 type  2   force =     0.29309645   -0.50765794    0.96389690
     atom   10 type  2   force =     0.29309645    0.50765794    0.96389690
     atom   11 type  2   force =    -0.00000000   -0.00000000   -1.08564559
     atom   12 type  2   force =     0.77337314   -0.00000000   -1.18418969
     atom   13 type  2   force =    -0.38668657    0.66976078   -1.18418969
     atom   14 type  2   force =    -0.38668657   -0.66976078   -1.18418969
     atom   15 type  2   force =    -0.77337314    0.00000000    1.18418969
     atom   16 type  2   force =     0.38668657   -0.66976078    1.18418969
     atom   17 type  2   force =     0.38668657    0.66976078    1.18418969
     atom   18 type  2   force =    -0.00000000   -0.00000000    1.08564559
     atom   19 type  2   force =     0.58619289   -0.00000000   -0.96389690
     atom   20 type  2   force =    -0.29309645    0.50765794   -0.96389690
     atom   21 type  2   force =    -0.29309645   -0.50765794   -0.96389690
     atom   22 type  2   force =     0.00000000    0.00000000   -1.50967421
     The ionic contribution  to forces
     atom    1 type  1   force =     7.36826262    0.00000000  -86.06366421
     atom    2 type  1   force =    -3.68413132    6.38110262  -86.06366421
     atom    3 type  1   force =    -3.68413132   -6.38110262  -86.06366421
     atom    4 type  1   force =    -7.36826262   -0.00000000   86.06366421
     atom    5 type  1   force =     3.68413132   -6.38110262   86.06366421
     atom    6 type  1   force =     3.68413132    6.38110262   86.06366421
     atom    7 type  2   force =    -0.00000000    0.00000000  -89.49737832
     atom    8 type  2   force =     6.66034174   -0.00000000  -76.68354276
     atom    9 type  2   force =    -3.33017087    5.76802515  -76.68354276
     atom   10 type  2   force =    -3.33017087   -5.76802515  -76.68354276
     atom   11 type  2   force =     0.00000001    0.00000000  -12.02573602
     atom   12 type  2   force =    -9.57122628    0.00000000   -9.62098914
     atom   13 type  2   force =     4.78561314   -8.28892510   -9.62098913
     atom   14 type  2   force =     4.78561314    8.28892510   -9.62098913
     atom   15 type  2   force =     9.57122628   -0.00000000    9.62098914
     atom   16 type  2   force =    -4.78561314    8.28892510    9.62098913
     atom   17 type  2   force =    -4.78561314   -8.28892510    9.62098913
     atom   18 type  2   force =    -0.00000001   -0.00000000   12.02573602
     atom   19 type  2   force =    -6.66034174    0.00000000   76.68354276
     atom   20 type  2   force =     3.33017087   -5.76802515   76.68354276
     atom   21 type  2   force =     3.33017087    5.76802515   76.68354276
     atom   22 type  2   force =     0.00000000   -0.00000000   89.49737832
     The local contribution  to forces
     atom    1 type  1   force =    -6.99604786   -0.00000000   86.11558147
     atom    2 type  1   force =     3.49802388   -6.05875515   86.11558147
     atom    3 type  1   force =     3.49802388    6.05875515   86.11558147
     atom    4 type  1   force =     6.99604786    0.00000000  -86.11558147
     atom    5 type  1   force =    -3.49802388    6.05875515  -86.11558147
     atom    6 type  1   force =    -3.49802388   -6.05875515  -86.11558147
     atom    7 type  2   force =     0.00000000    0.00000000   87.98695168
     atom    8 type  2   force =    -6.07433094   -0.00000000   75.71861806
     atom    9 type  2   force =     3.03716547   -5.26052491   75.71861806
     atom   10 type  2   force =     3.03716547    5.26052491   75.71861806
     atom   11 type  2   force =     0.00000004   -0.00000000   13.11075397
     atom   12 type  2   force =     8.79810770    0.00000000   10.80454892
     atom   13 type  2   force =    -4.39905385    7.61938477   10.80454892
     atom   14 type  2   force =    -4.39905385   -7.61938477   10.80454892
     atom   15 type  2   force =    -8.79810770   -0.00000000  -10.80454892
     atom   16 type  2   force =     4.39905385   -7.61938477  -10.80454892
     atom   17 type  2   force =     4.39905385    7.61938477  -10.80454892
     atom   18 type  2   force =    -0.00000004    0.00000000  -13.11075397
     atom   19 type  2   force =     6.07433094    0.00000000  -75.71861806
     atom   20 type  2   force =    -3.03716547    5.26052491  -75.71861806
     atom   21 type  2   force =    -3.03716547   -5.26052491  -75.71861806
     atom   22 type  2   force =    -0.00000000   -0.00000000  -87.98695168
     The core correction contribution to forces
     atom    1 type  1   force =     0.00000000    0.00000000    0.00000000
     atom    2 type  1   force =     0.00000000    0.00000000    0.00000000
     atom    3 type  1   force =     0.00000000    0.00000000    0.00000000
     atom    4 type  1   force =     0.00000000    0.00000000    0.00000000
     atom    5 type  1   force =     0.00000000    0.00000000    0.00000000
     atom    6 type  1   force =     0.00000000    0.00000000    0.00000000
     atom    7 type  2   force =     0.00000000    0.00000000    0.00000000
     atom    8 type  2   force =     0.00000000    0.00000000    0.00000000
     atom    9 type  2   force =     0.00000000    0.00000000    0.00000000
     atom   10 type  2   force =     0.00000000    0.00000000    0.00000000
     atom   11 type  2   force =     0.00000000    0.00000000    0.00000000
     atom   12 type  2   force =     0.00000000    0.00000000    0.00000000
     atom   13 type  2   force =     0.00000000    0.00000000    0.00000000
     atom   14 type  2   force =     0.00000000    0.00000000    0.00000000
     atom   15 type  2   force =     0.00000000    0.00000000    0.00000000
     atom   16 type  2   force =     0.00000000    0.00000000    0.00000000
     atom   17 type  2   force =     0.00000000    0.00000000    0.00000000
     atom   18 type  2   force =     0.00000000    0.00000000    0.00000000
     atom   19 type  2   force =     0.00000000    0.00000000    0.00000000
     atom   20 type  2   force =     0.00000000    0.00000000    0.00000000
     atom   21 type  2   force =     0.00000000    0.00000000    0.00000000
     atom   22 type  2   force =     0.00000000    0.00000000    0.00000000
     The Hubbard contrib.    to forces
     atom    1 type  1   force =     0.00000000    0.00000000    0.00000000
     atom    2 type  1   force =     0.00000000    0.00000000    0.00000000
     atom    3 type  1   force =     0.00000000    0.00000000    0.00000000
     atom    4 type  1   force =     0.00000000    0.00000000    0.00000000
     atom    5 type  1   force =     0.00000000    0.00000000    0.00000000
     atom    6 type  1   force =     0.00000000    0.00000000    0.00000000
     atom    7 type  2   force =     0.00000000    0.00000000    0.00000000
     atom    8 type  2   force =     0.00000000    0.00000000    0.00000000
     atom    9 type  2   force =     0.00000000    0.00000000    0.00000000
     atom   10 type  2   force =     0.00000000    0.00000000    0.00000000
     atom   11 type  2   force =     0.00000000    0.00000000    0.00000000
     atom   12 type  2   force =     0.00000000    0.00000000    0.00000000
     atom   13 type  2   force =     0.00000000    0.00000000    0.00000000
     atom   14 type  2   force =     0.00000000    0.00000000    0.00000000
     atom   15 type  2   force =     0.00000000    0.00000000    0.00000000
     atom   16 type  2   force =     0.00000000    0.00000000    0.00000000
     atom   17 type  2   force =     0.00000000    0.00000000    0.00000000
     atom   18 type  2   force =     0.00000000    0.00000000    0.00000000
     atom   19 type  2   force =     0.00000000    0.00000000    0.00000000
     atom   20 type  2   force =     0.00000000    0.00000000    0.00000000
     atom   21 type  2   force =     0.00000000    0.00000000    0.00000000
     atom   22 type  2   force =     0.00000000    0.00000000    0.00000000
     The SCF correction term to forces
     atom    1 type  1   force =     0.00000071   -0.00000000   -0.00000125
     atom    2 type  1   force =    -0.00000036    0.00000062   -0.00000125
     atom    3 type  1   force =    -0.00000036   -0.00000062   -0.00000125
     atom    4 type  1   force =    -0.00000071    0.00000000    0.00000125
     atom    5 type  1   force =     0.00000036   -0.00000062    0.00000125
     atom    6 type  1   force =     0.00000036    0.00000062    0.00000125
     atom    7 type  2   force =    -0.00000000   -0.00000000   -0.00000046
     atom    8 type  2   force =     0.00000008   -0.00000000   -0.00000059
     atom    9 type  2   force =    -0.00000004    0.00000007   -0.00000059
     atom   10 type  2   force =    -0.00000004   -0.00000007   -0.00000059
     atom   11 type  2   force =     0.00000000    0.00000000    0.00000022
     atom   12 type  2   force =    -0.00000048   -0.00000000    0.00000028
     atom   13 type  2   force =     0.00000024   -0.00000042    0.00000028
     atom   14 type  2   force =     0.00000024    0.00000042    0.00000028
     atom   15 type  2   force =     0.00000048   -0.00000000   -0.00000028
     atom   16 type  2   force =    -0.00000024    0.00000042   -0.00000028
     atom   17 type  2   force =    -0.00000024   -0.00000042   -0.00000028
     atom   18 type  2   force =    -0.00000000    0.00000000   -0.00000022
     atom   19 type  2   force =    -0.00000008    0.00000000    0.00000059
     atom   20 type  2   force =     0.00000004   -0.00000007    0.00000059
     atom   21 type  2   force =     0.00000004    0.00000007    0.00000059
     atom   22 type  2   force =     0.00000000    0.00000000    0.00000046

     DFT-D3 dispersion contribution to forces:
     atom    1 type  1   force =    -0.00102893    0.00000000    0.00362905
     atom    2 type  1   force =     0.00051446   -0.00089108    0.00362905
     atom    3 type  1   force =     0.00051446    0.00089108    0.00362905
     atom    4 type  1   force =     0.00102893    0.00000000   -0.00362905
     atom    5 type  1   force =    -0.00051446    0.00089108   -0.00362905
     atom    6 type  1   force =    -0.00051446   -0.00089108   -0.00362905
     atom    7 type  2   force =    -0.00000000   -0.00000000    0.00067020
     atom    8 type  2   force =     0.00017065    0.00000000    0.00083444
     atom    9 type  2   force =    -0.00008532    0.00014778    0.00083444
     atom   10 type  2   force =    -0.00008532   -0.00014778    0.00083444
     atom   11 type  2   force =    -0.00000000    0.00000000    0.00067206
     atom   12 type  2   force =    -0.00034867   -0.00000000    0.00055356
     atom   13 type  2   force =     0.00017434   -0.00030196    0.00055356
     atom   14 type  2   force =     0.00017434    0.00030196    0.00055356
     atom   15 type  2   force =     0.00034867   -0.00000000   -0.00055356
     atom   16 type  2   force =    -0.00017434    0.00030196   -0.00055356
     atom   17 type  2   force =    -0.00017434   -0.00030196   -0.00055356
     atom   18 type  2   force =     0.00000000    0.00000000   -0.00067206
     atom   19 type  2   force =    -0.00017065    0.00000000   -0.00083444
     atom   20 type  2   force =     0.00008532   -0.00014778   -0.00083444
     atom   21 type  2   force =     0.00008532    0.00014778   -0.00083444
     atom   22 type  2   force =     0.00000000   -0.00000000   -0.00067020

     Total force =     0.000969     Total SCF correction =     0.000004

     DFT-D3 dispersion Force =     0.009700


     Computing stress (Cartesian axis) and pressure

          total   stress  (Ry/bohr**3)                   (kbar)     P=        4.07
   0.00004169  -0.00000000   0.00000000            6.13       -0.00        0.00
  -0.00000000   0.00004169  -0.00000000           -0.00        6.13       -0.00
   0.00000000   0.00000000  -0.00000047            0.00        0.00       -0.07

     kinetic stress (kbar)  14391.41     -0.00      0.00
                               -0.00  14391.41     -0.00
                               -0.00     -0.00  14368.15

     local   stress (kbar)-370737.39     -0.00     -0.00
                               -0.00-370737.39     -0.00
                               -0.00     -0.00 357920.02

     nonloc. stress (kbar)    708.79     -0.00     -0.00
                               -0.00    708.79      0.00
                                0.00      0.00    725.03

     hartree stress (kbar) 183810.29      0.00      0.00
                                0.00 183810.29      0.00
                                0.00      0.00-176125.98

     exc-cor stress (kbar)  -2165.27     -0.00      0.00
                               -0.00  -2165.27     -0.00
                                0.00     -0.00  -2170.36

     corecor stress (kbar)      0.00      0.00      0.00
                                0.00      0.00      0.00
                                0.00      0.00      0.00

     ewald   stress (kbar) 174005.05      0.00      0.00
                                0.00 174005.05     -0.00
                                0.00     -0.00-194712.16

     hubbard stress (kbar)      0.00      0.00      0.00
                                0.00      0.00      0.00
                                0.00      0.00      0.00

     DFT-D   stress (kbar)     -6.75      0.00     -0.00
                                0.00     -6.75     -0.00
                               -0.00     -0.00     -4.77

     XDM     stress (kbar)      0.00      0.00      0.00
                                0.00      0.00      0.00
                                0.00      0.00      0.00

     dft-nl  stress (kbar)      0.00      0.00      0.00
                                0.00      0.00      0.00
                                0.00      0.00      0.00

     TS-vdW  stress (kbar)      0.00      0.00      0.00
                                0.00      0.00      0.00
                                0.00      0.00      0.00

     MDB     stress (kbar)      0.00      0.00      0.00
                                0.00      0.00      0.00
                                0.00      0.00      0.00

     3D-RISM stress (kbar)      0.00      0.00      0.00
                                0.00      0.00      0.00
                                0.00      0.00      0.00


     Writing all to output data dir ./out/Nb3F8.save/ :
     XML data file, charge density, pseudopotentials, collected wavefunctions

     init_run     :      1.06s CPU      1.19s WALL (       1 calls)
     electrons    :     18.61s CPU     20.13s WALL (       1 calls)
     forces       :      0.19s CPU      0.23s WALL (       1 calls)
     force_dftd3  :      0.02s CPU      0.03s WALL (       1 calls)
     stress       :      1.51s CPU      1.57s WALL (       1 calls)
     stres_dftd3  :      0.02s CPU      0.02s WALL (       1 calls)

     Called by init_run:
     wfcinit      :      0.19s CPU      0.22s WALL (       1 calls)
     wfcinit:wfcr :      0.17s CPU      0.19s WALL (       1 calls)
     potinit      :      0.04s CPU      0.04s WALL (       1 calls)
     hinit0       :      0.65s CPU      0.69s WALL (       1 calls)

     Called by electrons:
     c_bands      :     16.45s CPU     16.84s WALL (      15 calls)
     sum_band     :      1.10s CPU      1.14s WALL (      15 calls)
     v_of_rho     :      0.38s CPU      0.44s WALL (      15 calls)
     v_h          :      0.03s CPU      0.04s WALL (      15 calls)
     v_xc         :      0.35s CPU      0.40s WALL (      15 calls)
     mix_rho      :      0.12s CPU      0.14s WALL (      15 calls)
     energy_dftd3 :      0.00s CPU      0.00s WALL (       1 calls)

     Called by c_bands:
     init_us_2    :      0.32s CPU      0.33s WALL (      31 calls)
     cegterg      :     13.66s CPU     13.99s WALL (      15 calls)

     Called by sum_band:
     sum_band:wei :      0.07s CPU      0.07s WALL (      15 calls)
     sum_band:loo :      0.94s CPU      0.96s WALL (      15 calls)
     sum_band:buf :      0.00s CPU      0.00s WALL (      15 calls)
     sum_band:ini :      0.17s CPU      0.17s WALL (      15 calls)

     Called by *egterg:
     cdiaghg      :      2.24s CPU      2.26s WALL (     133 calls)
     cegterg:over :      1.39s CPU      1.41s WALL (     119 calls)
     cegterg:upda :      0.93s CPU      0.96s WALL (     119 calls)
     cegterg:last :      1.34s CPU      1.36s WALL (      42 calls)
     h_psi        :      7.38s CPU      7.59s WALL (     135 calls)
     g_psi        :      0.03s CPU      0.03s WALL (     119 calls)

     Called by h_psi:
     h_psi:calbec :      1.20s CPU      1.22s WALL (     135 calls)
     vloc_psi     :      5.00s CPU      5.11s WALL (     135 calls)
     add_vuspsi   :      1.06s CPU      1.08s WALL (     135 calls)

     General routines
     calbec       :      1.29s CPU      1.31s WALL (     140 calls)
     fft          :      0.76s CPU      0.84s WALL (     158 calls)
     ffts         :      0.02s CPU      0.02s WALL (      15 calls)
     fftw         :      5.21s CPU      5.32s WALL (   13074 calls)

     Parallel routines

     PWSCF        :     39.59s CPU     74.39s WALL


   This run was terminated on:  20:49:54   7May2025            

=------------------------------------------------------------------------------=
   JOB DONE.
=------------------------------------------------------------------------------=
