
     Program PHONON v.7.4.1 starts on 11May2025 at 18:15:33 

     This program is part of the open-source Quantum ESPRESSO suite
     for quantum simulation of materials; please cite
         "P. Giannozzi et al., J. Phys.:Condens. Matter 21 395502 (2009);
         "P. Giannozzi et al., J. Phys.:Condens. Matter 29 465901 (2017);
         "P. Giannozzi et al., J. Chem. Phys. 152 154105 (2020);
          URL http://www.quantum-espresso.org", 
     in publications or presentations arising from this work. More details at
     http://www.quantum-espresso.org/quote

     Parallel version (MPI), running on   384 processors

     MPI processes distributed on     2 nodes
     335248 MiB available memory on the printing compute node when the environment starts

     Waiting for input...
     Reading input from standard input

     Reading xml data from directory:

     ./out/Nb3Cl8.save/

     K-points division:     npool     =      12
     R & G space division:  proc/nbgrp/npool/nimage =      32
     Subspace diagonalization in iterative solution of the eigenvalue problem:
     a serial algorithm will be used


     IMPORTANT: XC functional enforced from input :
     Exchange-correlation= PBE
                           (   1   4   3   4   0   0   0)
     Any further DFT definition will be discarded
     Please, verify this is what you really want


     Parallelization info
     --------------------
     sticks:   dense  smooth     PW     G-vecs:    dense   smooth      PW
     Min         140     140     37                13746    13746    1889
     Max         141     141     38                13752    13752    1896
     Sum        4483    4483   1189               439935   439935   60539

     Using Slab Decomposition

     Reading collected, re-writing distributed wavefunctions in ./out/

     cDFPT active subspace:
     Complete band 95
     Complete band 96

     Saving dvscf to file. Distribute only q points, not irreducible representations.
        1 /   4 q-points for this run, from  4 to  4:
       N       xq(1)         xq(2)         xq(3) 
       1   0.000000000   0.000000000   0.000000000
       2   0.000000000   0.000000000  -0.274267270
       3   0.288675135  -0.500000000   0.091422423
       4   0.288675135  -0.500000000  -0.182844846


     Calculation of q =    0.2886751  -0.5000000  -0.1828448

     Bands found: reading from ./out/_ph0/Nb3Cl8.q_4/

     Reading xml data from directory:

     ./out/_ph0/Nb3Cl8.q_4/Nb3Cl8.save/
     Message from routine qexsd_readschema :
     input info not found or not readable in xml file

     IMPORTANT: XC functional enforced from input :
     Exchange-correlation= PBE
                           (   1   4   3   4   0   0   0)
     Any further DFT definition will be discarded
     Please, verify this is what you really want


     Parallelization info
     --------------------
     sticks:   dense  smooth     PW     G-vecs:    dense   smooth      PW
     Min         140     140     39                13746    13746    2043
     Max         141     141     40                13752    13752    2050
     Sum        4483    4483   1261               439935   439935   65449

     Using Slab Decomposition

     read_file_new: Wavefunctions not in collected format?!?
     read_file: Wavefunctions in collected format not available

     Restart in Phonon calculation

     Nb3Cl8                                                                     

     bravais-lattice index     =            0
     lattice parameter (alat)  =      12.7288  a.u.
     unit-cell volume          =    3256.0167 (a.u.)^3
     number of atoms/cell      =           22
     number of atomic types    =            2
     kinetic-energy cut-off    =     100.0000  Ry
     charge density cut-off    =     400.0000  Ry
     convergence threshold     =      1.0E-16
     beta                      =       0.7000
     number of iterations used =            4
     Exchange-correlation= PBE
                           (   1   4   3   4   0   0   0)


     celldm(1)=   12.72878  celldm(2)=    0.00000  celldm(3)=    0.00000
     celldm(4)=    0.00000  celldm(5)=    0.00000  celldm(6)=    0.00000

     crystal axes: (cart. coord. in units of alat)
               a(1) = (  0.8660  0.5000  0.0000 )  
               a(2) = ( -0.8660  0.5000  0.0000 )  
               a(3) = ( -0.5774  0.0000  1.8230 )  

     reciprocal axes: (cart. coord. in units 2 pi/alat)
               b(1) = (  0.5774  1.0000  0.1828 )  
               b(2) = ( -0.5774  1.0000 -0.1828 )  
               b(3) = (  0.0000 -0.0000  0.5485 )  


     Atoms inside the unit cell: 

     Cartesian axes

     site n.  atom      mass           positions (alat units)
        1  Nb     92.9064   tau(    1) = (    0.23978    0.00000   -0.46026  )
        2  Nb     92.9064   tau(    2) = (   -0.11989    0.20765   -0.46026  )
        3  Nb     92.9064   tau(    3) = (   -0.11989   -0.20765   -0.46026  )
        4  Nb     92.9064   tau(    4) = (   -0.23978    0.00000    0.46026  )
        5  Nb     92.9064   tau(    5) = (    0.11989   -0.20765    0.46026  )
        6  Nb     92.9064   tau(    6) = (    0.11989    0.20765    0.46026  )
        7  Cl     35.4527   tau(    7) = (   -0.00000    0.00000   -0.73265  )
        8  Cl     35.4527   tau(    8) = (    0.86951    0.00000   -0.66249  )
        9  Cl     35.4527   tau(    9) = (    0.43127    0.25301   -0.66249  )
       10  Cl     35.4527   tau(   10) = (    0.43127   -0.25301   -0.66249  )
       11  Cl     35.4527   tau(   11) = (    0.57735    0.00000   -0.25797  )
       12  Cl     35.4527   tau(   12) = (   -0.28658    0.00000   -0.21680  )
       13  Cl     35.4527   tau(   13) = (    0.14329   -0.24819   -0.21680  )
       14  Cl     35.4527   tau(   14) = (    0.14329    0.24819   -0.21680  )
       15  Cl     35.4527   tau(   15) = (    0.28658    0.00000    0.21680  )
       16  Cl     35.4527   tau(   16) = (   -0.14329    0.24819    0.21680  )
       17  Cl     35.4527   tau(   17) = (   -0.14329   -0.24819    0.21680  )
       18  Cl     35.4527   tau(   18) = (   -0.57735    0.00000    0.25797  )
       19  Cl     35.4527   tau(   19) = (   -0.86951    0.00000    0.66249  )
       20  Cl     35.4527   tau(   20) = (   -0.43127   -0.25301    0.66249  )
       21  Cl     35.4527   tau(   21) = (   -0.43127    0.25301    0.66249  )
       22  Cl     35.4527   tau(   22) = (    0.00000    0.00000    0.73265  )

     Computing dynamical matrix for 
                    q = (   0.2886751  -0.5000000  -0.1828448 )

      5 Sym.Ops. (with q -> -q+G )


     G cutoff = 1641.6235  (  13748 G-vectors)     FFT grid: (180,180,180)

     number of k points=   136  Gaussian smearing, width (Ry)=  0.0037

     PseudoPot. # 1 for Nb read from file:
     /scratch-shared/mroesner/Nb3X8_cDFPT/pp/Nb_ONCV_PBE-1.2.upf
     MD5 check sum: 2c750ac0b6910ff4cf0ab5f6c4124a64
     Pseudo is Norm-conserving, Zval = 13.0
     Generated using ONCVPSP code by D. R. Hamann
     Using radial grid of  602 points,  6 beta functions with: 
                l(1) =   0
                l(2) =   0
                l(3) =   1
                l(4) =   1
                l(5) =   2
                l(6) =   2

     PseudoPot. # 2 for Cl read from file:
     /scratch-shared/mroesner/Nb3X8_cDFPT/pp/Cl_ONCV_PBE-1.2.upf
     MD5 check sum: 0f993535b366f580ecbcdacce103c843
     Pseudo is Norm-conserving, Zval =  7.0
     Generated using ONCVPSP code by D. R. Hamann
     Using radial grid of  602 points,  4 beta functions with: 
                l(1) =   0
                l(2) =   0
                l(3) =   1
                l(4) =   1

     Mode symmetry, C_2h (2/m)  point group:


     Atomic displacements:
     There are   64 irreducible representations

     Representation     1      1 modes -  Done

     Representation     2      1 modes -  Done

     Representation     3      1 modes -  To be done

     Representation     4      1 modes -  To be done

     Representation     5      1 modes -  To be done

     Representation     6      1 modes -  To be done

     Representation     7      1 modes -  To be done

     Representation     8      1 modes -  To be done

     Representation     9      2 modes -  To be done

     Representation    10      1 modes -  To be done

     Representation    11      1 modes -  To be done

     Representation    12      1 modes -  To be done

     Representation    13      1 modes -  To be done

     Representation    14      2 modes -  To be done

     Representation    15      1 modes -  To be done

     Representation    16      1 modes -  To be done

     Representation    17      1 modes -  To be done

     Representation    18      1 modes -  To be done

     Representation    19      1 modes -  To be done

     Representation    20      1 modes -  To be done

     Representation    21      1 modes -  To be done

     Representation    22      1 modes -  To be done

     Representation    23      1 modes -  To be done

     Representation    24      1 modes -  To be done

     Representation    25      1 modes -  To be done

     Representation    26      1 modes -  To be done

     Representation    27      1 modes -  To be done

     Representation    28      1 modes -  To be done

     Representation    29      1 modes -  To be done

     Representation    30      1 modes -  To be done

     Representation    31      1 modes -  To be done

     Representation    32      1 modes -  To be done

     Representation    33      1 modes -  To be done

     Representation    34      1 modes -  To be done

     Representation    35      1 modes -  To be done

     Representation    36      1 modes -  To be done

     Representation    37      1 modes -  To be done

     Representation    38      1 modes -  To be done

     Representation    39      1 modes -  To be done

     Representation    40      1 modes -  To be done

     Representation    41      1 modes -  To be done

     Representation    42      1 modes -  To be done

     Representation    43      1 modes -  To be done

     Representation    44      1 modes -  To be done

     Representation    45      1 modes -  To be done

     Representation    46      1 modes -  To be done

     Representation    47      1 modes -  To be done

     Representation    48      1 modes -  To be done

     Representation    49      1 modes -  To be done

     Representation    50      1 modes -  To be done

     Representation    51      1 modes -  To be done

     Representation    52      1 modes -  To be done

     Representation    53      1 modes -  To be done

     Representation    54      1 modes -  To be done

     Representation    55      1 modes -  To be done

     Representation    56      1 modes -  To be done

     Representation    57      1 modes -  To be done

     Representation    58      1 modes -  To be done

     Representation    59      1 modes -  To be done

     Representation    60      1 modes -  To be done

     Representation    61      1 modes -  To be done

     Representation    62      1 modes -  To be done

     Representation    63      1 modes -  To be done

     Representation    64      1 modes -  To be done


     Message from routine init_vloc:
     Interpolation table for Vloc re-allocated
     PHONON       :     12.19s CPU     46.66s WALL



     Representation #   3 mode #   3

     Self-consistent Calculation

      iter #  12 total cpu time :   137.1 secs   av.it.:  14.8
      thresh= 5.523E-09 alpha_mix =  0.700 |ddv_scf|^2 =  1.887E-15

      iter #  13 total cpu time :   227.0 secs   av.it.:  17.5
      thresh= 4.344E-09 alpha_mix =  0.700 |ddv_scf|^2 =  8.000E-15

      iter #  14 total cpu time :   314.0 secs   av.it.:  14.9
      thresh= 8.945E-09 alpha_mix =  0.700 |ddv_scf|^2 =  1.907E-16

      iter #  15 total cpu time :   401.5 secs   av.it.:  16.9
      thresh= 1.381E-09 alpha_mix =  0.700 |ddv_scf|^2 =  1.116E-16

      iter #  16 total cpu time :   490.2 secs   av.it.:  16.0
      thresh= 1.056E-09 alpha_mix =  0.700 |ddv_scf|^2 =  1.582E-17

     End of self-consistent calculation

     Convergence has been achieved 


     Representation #   4 mode #   4

     Self-consistent Calculation

      iter #   1 total cpu time :   569.4 secs   av.it.:   6.0
      thresh= 1.000E-02 alpha_mix =  0.700 |ddv_scf|^2 =  1.745E-07

      iter #   2 total cpu time :   658.4 secs   av.it.:  18.0
      thresh= 4.177E-05 alpha_mix =  0.700 |ddv_scf|^2 =  7.149E-06

      iter #   3 total cpu time :   745.8 secs   av.it.:  14.3
      thresh= 2.674E-04 alpha_mix =  0.700 |ddv_scf|^2 =  2.326E-07

      iter #   4 total cpu time :   829.9 secs   av.it.:  15.2
      thresh= 4.823E-05 alpha_mix =  0.700 |ddv_scf|^2 =  6.391E-09

      iter #   5 total cpu time :   918.9 secs   av.it.:  16.0
      thresh= 7.994E-06 alpha_mix =  0.700 |ddv_scf|^2 =  1.446E-09

      iter #   6 total cpu time :  1009.2 secs   av.it.:  16.0
      thresh= 3.802E-06 alpha_mix =  0.700 |ddv_scf|^2 =  4.212E-11

      iter #   7 total cpu time :  1108.0 secs   av.it.:  17.0
      thresh= 6.490E-07 alpha_mix =  0.700 |ddv_scf|^2 =  2.814E-12

      iter #   8 total cpu time :  1198.1 secs   av.it.:  16.8
      thresh= 1.678E-07 alpha_mix =  0.700 |ddv_scf|^2 =  6.605E-14

      iter #   9 total cpu time :  1292.8 secs   av.it.:  18.0
      thresh= 2.570E-08 alpha_mix =  0.700 |ddv_scf|^2 =  1.412E-13

      iter #  10 total cpu time :  1384.7 secs   av.it.:  16.0
      thresh= 3.758E-08 alpha_mix =  0.700 |ddv_scf|^2 =  6.538E-15

      iter #  11 total cpu time :  1476.7 secs   av.it.:  17.3
      thresh= 8.086E-09 alpha_mix =  0.700 |ddv_scf|^2 =  4.847E-15

      iter #  12 total cpu time :  1564.7 secs   av.it.:  16.1
      thresh= 6.962E-09 alpha_mix =  0.700 |ddv_scf|^2 =  3.160E-15

      iter #  13 total cpu time :  1649.4 secs   av.it.:  15.2
      thresh= 5.621E-09 alpha_mix =  0.700 |ddv_scf|^2 =  6.872E-16

      iter #  14 total cpu time :  1731.7 secs   av.it.:  15.9
      thresh= 2.621E-09 alpha_mix =  0.700 |ddv_scf|^2 =  6.921E-17

     End of self-consistent calculation

     Convergence has been achieved 


     Representation #   5 mode #   5

     Self-consistent Calculation

      iter #   1 total cpu time :  1812.4 secs   av.it.:   6.3
      thresh= 1.000E-02 alpha_mix =  0.700 |ddv_scf|^2 =  1.122E-07

      iter #   2 total cpu time :  1906.6 secs   av.it.:  18.2
      thresh= 3.350E-05 alpha_mix =  0.700 |ddv_scf|^2 =  5.436E-06

      iter #   3 total cpu time :  1994.7 secs   av.it.:  14.1
      thresh= 2.331E-04 alpha_mix =  0.700 |ddv_scf|^2 =  6.295E-08

      iter #   4 total cpu time :  2082.8 secs   av.it.:  16.0
      thresh= 2.509E-05 alpha_mix =  0.700 |ddv_scf|^2 =  2.584E-09

      iter #   5 total cpu time :  2174.0 secs   av.it.:  16.8
      thresh= 5.083E-06 alpha_mix =  0.700 |ddv_scf|^2 =  5.693E-10

      iter #   6 total cpu time :  2260.8 secs   av.it.:  15.9
      thresh= 2.386E-06 alpha_mix =  0.700 |ddv_scf|^2 =  2.077E-11

      iter #   7 total cpu time :  2345.9 secs   av.it.:  17.0
      thresh= 4.558E-07 alpha_mix =  0.700 |ddv_scf|^2 =  1.446E-12

      iter #   8 total cpu time :  2434.0 secs   av.it.:  17.0
      thresh= 1.202E-07 alpha_mix =  0.700 |ddv_scf|^2 =  2.456E-13

      iter #   9 total cpu time :  2525.5 secs   av.it.:  16.8
      thresh= 4.956E-08 alpha_mix =  0.700 |ddv_scf|^2 =  6.410E-14

      iter #  10 total cpu time :  2615.2 secs   av.it.:  16.6
      thresh= 2.532E-08 alpha_mix =  0.700 |ddv_scf|^2 =  3.028E-15

      iter #  11 total cpu time :  2699.4 secs   av.it.:  17.1
      thresh= 5.503E-09 alpha_mix =  0.700 |ddv_scf|^2 =  1.383E-15

      iter #  12 total cpu time :  2784.9 secs   av.it.:  16.9
      thresh= 3.719E-09 alpha_mix =  0.700 |ddv_scf|^2 =  3.470E-16

      iter #  13 total cpu time :  2870.1 secs   av.it.:  17.0
      thresh= 1.863E-09 alpha_mix =  0.700 |ddv_scf|^2 =  1.812E-16

      iter #  14 total cpu time :  2962.6 secs   av.it.:  16.9
      thresh= 1.346E-09 alpha_mix =  0.700 |ddv_scf|^2 =  2.186E-16

      iter #  15 total cpu time :  3034.7 secs   av.it.:  15.2
      thresh= 1.479E-09 alpha_mix =  0.700 |ddv_scf|^2 =  3.061E-17

     End of self-consistent calculation

     Convergence has been achieved 


     Representation #   6 mode #   6

     Self-consistent Calculation

      iter #   1 total cpu time :  3110.6 secs   av.it.:   6.0
      thresh= 1.000E-02 alpha_mix =  0.700 |ddv_scf|^2 =  4.200E-08

      iter #   2 total cpu time :  3200.6 secs   av.it.:  18.3
      thresh= 2.049E-05 alpha_mix =  0.700 |ddv_scf|^2 =  1.317E-06

      iter #   3 total cpu time :  3287.6 secs   av.it.:  14.5
      thresh= 1.148E-04 alpha_mix =  0.700 |ddv_scf|^2 =  5.393E-08

      iter #   4 total cpu time :  3374.3 secs   av.it.:  16.0
      thresh= 2.322E-05 alpha_mix =  0.700 |ddv_scf|^2 =  1.186E-09

      iter #   5 total cpu time :  3460.6 secs   av.it.:  16.5
      thresh= 3.444E-06 alpha_mix =  0.700 |ddv_scf|^2 =  1.455E-10

      iter #   6 total cpu time :  3556.2 secs   av.it.:  16.4
      thresh= 1.206E-06 alpha_mix =  0.700 |ddv_scf|^2 =  2.489E-11

      iter #   7 total cpu time :  3654.7 secs   av.it.:  16.8
      thresh= 4.989E-07 alpha_mix =  0.700 |ddv_scf|^2 =  4.124E-12

      iter #   8 total cpu time :  3743.0 secs   av.it.:  17.0
      thresh= 2.031E-07 alpha_mix =  0.700 |ddv_scf|^2 =  4.656E-14

      iter #   9 total cpu time :  3832.2 secs   av.it.:  18.5
      thresh= 2.158E-08 alpha_mix =  0.700 |ddv_scf|^2 =  4.946E-14

      iter #  10 total cpu time :  3917.1 secs   av.it.:  16.7
      thresh= 2.224E-08 alpha_mix =  0.700 |ddv_scf|^2 =  1.435E-14

      iter #  11 total cpu time :  4010.5 secs   av.it.:  16.2
      thresh= 1.198E-08 alpha_mix =  0.700 |ddv_scf|^2 =  3.357E-15

      iter #  12 total cpu time :  4096.4 secs   av.it.:  16.8
      thresh= 5.794E-09 alpha_mix =  0.700 |ddv_scf|^2 =  3.826E-15

      iter #  13 total cpu time :  4187.0 secs   av.it.:  15.8
      thresh= 6.185E-09 alpha_mix =  0.700 |ddv_scf|^2 =  2.660E-16

      iter #  14 total cpu time :  4278.9 secs   av.it.:  17.6
      thresh= 1.631E-09 alpha_mix =  0.700 |ddv_scf|^2 =  6.683E-16

      iter #  15 total cpu time :  4355.8 secs   av.it.:  15.0
      thresh= 2.585E-09 alpha_mix =  0.700 |ddv_scf|^2 =  1.752E-17

     End of self-consistent calculation

     Convergence has been achieved 


     Representation #   7 mode #   7

     Self-consistent Calculation

      iter #   1 total cpu time :  4436.6 secs   av.it.:   6.0
      thresh= 1.000E-02 alpha_mix =  0.700 |ddv_scf|^2 =  7.221E-08

      iter #   2 total cpu time :  4524.6 secs   av.it.:  18.0
      thresh= 2.687E-05 alpha_mix =  0.700 |ddv_scf|^2 =  3.594E-06

      iter #   3 total cpu time :  4612.1 secs   av.it.:  14.0
      thresh= 1.896E-04 alpha_mix =  0.700 |ddv_scf|^2 =  3.817E-08

      iter #   4 total cpu time :  4697.1 secs   av.it.:  15.9
      thresh= 1.954E-05 alpha_mix =  0.700 |ddv_scf|^2 =  3.599E-09

      iter #   5 total cpu time :  4787.1 secs   av.it.:  16.4
      thresh= 5.999E-06 alpha_mix =  0.700 |ddv_scf|^2 =  2.173E-10

      iter #   6 total cpu time :  4880.8 secs   av.it.:  16.5
      thresh= 1.474E-06 alpha_mix =  0.700 |ddv_scf|^2 =  7.319E-12

      iter #   7 total cpu time :  4971.2 secs   av.it.:  17.4
      thresh= 2.705E-07 alpha_mix =  0.700 |ddv_scf|^2 =  1.121E-12

      iter #   8 total cpu time :  5062.9 secs   av.it.:  17.1
      thresh= 1.059E-07 alpha_mix =  0.700 |ddv_scf|^2 =  1.751E-13

      iter #   9 total cpu time :  5150.9 secs   av.it.:  16.8
      thresh= 4.185E-08 alpha_mix =  0.700 |ddv_scf|^2 =  4.792E-14

      iter #  10 total cpu time :  5243.5 secs   av.it.:  16.5
      thresh= 2.189E-08 alpha_mix =  0.700 |ddv_scf|^2 =  6.799E-15

      iter #  11 total cpu time :  5330.4 secs   av.it.:  16.1
      thresh= 8.246E-09 alpha_mix =  0.700 |ddv_scf|^2 =  4.446E-15

      iter #  12 total cpu time :  5417.2 secs   av.it.:  15.9
      thresh= 6.668E-09 alpha_mix =  0.700 |ddv_scf|^2 =  9.557E-16

      iter #  13 total cpu time :  5507.3 secs   av.it.:  16.7
      thresh= 3.091E-09 alpha_mix =  0.700 |ddv_scf|^2 =  4.359E-16

      iter #  14 total cpu time :  5589.3 secs   av.it.:  16.2
      thresh= 2.088E-09 alpha_mix =  0.700 |ddv_scf|^2 =  5.089E-17

     End of self-consistent calculation

     Convergence has been achieved 


     Representation #   8 mode #   8

     Self-consistent Calculation

      iter #   1 total cpu time :  5666.2 secs   av.it.:   6.0
      thresh= 1.000E-02 alpha_mix =  0.700 |ddv_scf|^2 =  6.155E-08

      iter #   2 total cpu time :  5759.5 secs   av.it.:  18.0
      thresh= 2.481E-05 alpha_mix =  0.700 |ddv_scf|^2 =  1.866E-06

      iter #   3 total cpu time :  5840.5 secs   av.it.:  14.6
      thresh= 1.366E-04 alpha_mix =  0.700 |ddv_scf|^2 =  1.646E-07

      iter #   4 total cpu time :  5926.7 secs   av.it.:  15.0
      thresh= 4.057E-05 alpha_mix =  0.700 |ddv_scf|^2 =  2.985E-09

      iter #   5 total cpu time :  6018.1 secs   av.it.:  16.8
      thresh= 5.464E-06 alpha_mix =  0.700 |ddv_scf|^2 =  3.719E-10

      iter #   6 total cpu time :  6105.3 secs   av.it.:  16.1
      thresh= 1.928E-06 alpha_mix =  0.700 |ddv_scf|^2 =  1.388E-11

      iter #   7 total cpu time :  6193.5 secs   av.it.:  17.0
      thresh= 3.726E-07 alpha_mix =  0.700 |ddv_scf|^2 =  1.184E-12

      iter #   8 total cpu time :  6284.7 secs   av.it.:  17.2
      thresh= 1.088E-07 alpha_mix =  0.700 |ddv_scf|^2 =  6.814E-14

      iter #   9 total cpu time :  6378.1 secs   av.it.:  18.0
      thresh= 2.610E-08 alpha_mix =  0.700 |ddv_scf|^2 =  3.080E-13

      iter #  10 total cpu time :  6459.8 secs   av.it.:  15.5
      thresh= 5.550E-08 alpha_mix =  0.700 |ddv_scf|^2 =  8.886E-15

      iter #  11 total cpu time :  6547.8 secs   av.it.:  16.9
      thresh= 9.427E-09 alpha_mix =  0.700 |ddv_scf|^2 =  6.701E-16

      iter #  12 total cpu time :  6635.5 secs   av.it.:  17.9
      thresh= 2.589E-09 alpha_mix =  0.700 |ddv_scf|^2 =  1.904E-15

      iter #  13 total cpu time :  6727.8 secs   av.it.:  16.0
      thresh= 4.364E-09 alpha_mix =  0.700 |ddv_scf|^2 =  6.204E-16

      iter #  14 total cpu time :  6810.3 secs   av.it.:  16.0
      thresh= 2.491E-09 alpha_mix =  0.700 |ddv_scf|^2 =  6.975E-17

     End of self-consistent calculation

     Convergence has been achieved 


     Representation #   9 modes #   9  10

     Self-consistent Calculation

      iter #   1 total cpu time :  6938.9 secs   av.it.:   7.0
      thresh= 1.000E-02 alpha_mix =  0.700 |ddv_scf|^2 =  5.992E-08

      iter #   2 total cpu time :  7112.0 secs   av.it.:  19.0
      thresh= 2.448E-05 alpha_mix =  0.700 |ddv_scf|^2 =  2.399E-06

      iter #   3 total cpu time :  7263.9 secs   av.it.:  15.1
      thresh= 1.549E-04 alpha_mix =  0.700 |ddv_scf|^2 =  9.925E-08

      iter #   4 total cpu time :  7422.7 secs   av.it.:  16.3
      thresh= 3.150E-05 alpha_mix =  0.700 |ddv_scf|^2 =  9.170E-09

      iter #   5 total cpu time :  7572.1 secs   av.it.:  16.8
      thresh= 9.576E-06 alpha_mix =  0.700 |ddv_scf|^2 =  4.391E-09

      iter #   6 total cpu time :  7734.4 secs   av.it.:  16.9
      thresh= 6.626E-06 alpha_mix =  0.700 |ddv_scf|^2 =  8.997E-11

      iter #   7 total cpu time :  7889.8 secs   av.it.:  16.9
      thresh= 9.485E-07 alpha_mix =  0.700 |ddv_scf|^2 =  2.901E-11

      iter #   8 total cpu time :  8037.0 secs   av.it.:  16.2
      thresh= 5.386E-07 alpha_mix =  0.700 |ddv_scf|^2 =  1.214E-12

      iter #   9 total cpu time :  8193.3 secs   av.it.:  17.4
      thresh= 1.102E-07 alpha_mix =  0.700 |ddv_scf|^2 =  4.041E-13

      iter #  10 total cpu time :  8350.6 secs   av.it.:  16.8
      thresh= 6.357E-08 alpha_mix =  0.700 |ddv_scf|^2 =  6.326E-14

      iter #  11 total cpu time :  8509.0 secs   av.it.:  18.0
      thresh= 2.515E-08 alpha_mix =  0.700 |ddv_scf|^2 =  1.071E-13

      iter #  12 total cpu time :  8660.3 secs   av.it.:  16.3
      thresh= 3.272E-08 alpha_mix =  0.700 |ddv_scf|^2 =  3.113E-15

      iter #  13 total cpu time :  8822.5 secs   av.it.:  18.0
      thresh= 5.580E-09 alpha_mix =  0.700 |ddv_scf|^2 =  9.993E-16

      iter #  14 total cpu time :  8981.9 secs   av.it.:  17.7
      thresh= 3.161E-09 alpha_mix =  0.700 |ddv_scf|^2 =  7.147E-15

      iter #  15 total cpu time :  9127.8 secs   av.it.:  14.9
      thresh= 8.454E-09 alpha_mix =  0.700 |ddv_scf|^2 =  2.328E-16

      iter #  16 total cpu time :  9275.6 secs   av.it.:  17.0
      thresh= 1.526E-09 alpha_mix =  0.700 |ddv_scf|^2 =  8.112E-17

     End of self-consistent calculation

     Convergence has been achieved 


     Representation #  10 mode #  11

     Self-consistent Calculation

      iter #   1 total cpu time :  9351.8 secs   av.it.:   6.0
      thresh= 1.000E-02 alpha_mix =  0.700 |ddv_scf|^2 =  5.273E-08

      iter #   2 total cpu time :  9449.0 secs   av.it.:  18.1
      thresh= 2.296E-05 alpha_mix =  0.700 |ddv_scf|^2 =  6.687E-07

      iter #   3 total cpu time :  9538.9 secs   av.it.:  15.2
      thresh= 8.178E-05 alpha_mix =  0.700 |ddv_scf|^2 =  2.530E-07

      iter #   4 total cpu time :  9624.6 secs   av.it.:  14.9
      thresh= 5.029E-05 alpha_mix =  0.700 |ddv_scf|^2 =  8.499E-09

      iter #   5 total cpu time :  9706.7 secs   av.it.:  15.8
      thresh= 9.219E-06 alpha_mix =  0.700 |ddv_scf|^2 =  3.417E-10

      iter #   6 total cpu time :  9794.2 secs   av.it.:  16.8
      thresh= 1.848E-06 alpha_mix =  0.700 |ddv_scf|^2 =  1.602E-11

      iter #   7 total cpu time :  9882.1 secs   av.it.:  17.0
      thresh= 4.003E-07 alpha_mix =  0.700 |ddv_scf|^2 =  2.662E-12

      iter #   8 total cpu time :  9966.4 secs   av.it.:  17.0
      thresh= 1.632E-07 alpha_mix =  0.700 |ddv_scf|^2 =  5.700E-14

      iter #   9 total cpu time : 10062.8 secs   av.it.:  18.0
      thresh= 2.388E-08 alpha_mix =  0.700 |ddv_scf|^2 =  9.466E-14

      iter #  10 total cpu time : 10145.7 secs   av.it.:  16.3
      thresh= 3.077E-08 alpha_mix =  0.700 |ddv_scf|^2 =  1.335E-13

      iter #  11 total cpu time : 10228.2 secs   av.it.:  15.0
      thresh= 3.654E-08 alpha_mix =  0.700 |ddv_scf|^2 =  5.951E-15

      iter #  12 total cpu time : 10312.5 secs   av.it.:  16.1
      thresh= 7.714E-09 alpha_mix =  0.700 |ddv_scf|^2 =  9.370E-16

      iter #  13 total cpu time : 10400.5 secs   av.it.:  17.1
      thresh= 3.061E-09 alpha_mix =  0.700 |ddv_scf|^2 =  3.378E-16

      iter #  14 total cpu time : 10485.3 secs   av.it.:  17.0
      thresh= 1.838E-09 alpha_mix =  0.700 |ddv_scf|^2 =  9.767E-17

     End of self-consistent calculation

     Convergence has been achieved 


     Representation #  11 mode #  12

     Self-consistent Calculation

      iter #   1 total cpu time : 10561.6 secs   av.it.:   6.2
      thresh= 1.000E-02 alpha_mix =  0.700 |ddv_scf|^2 =  1.075E-07

      iter #   2 total cpu time : 10649.3 secs   av.it.:  18.1
      thresh= 3.279E-05 alpha_mix =  0.700 |ddv_scf|^2 =  3.721E-06

      iter #   3 total cpu time : 10729.7 secs   av.it.:  14.2
      thresh= 1.929E-04 alpha_mix =  0.700 |ddv_scf|^2 =  1.828E-07

      iter #   4 total cpu time : 10813.7 secs   av.it.:  15.1
      thresh= 4.275E-05 alpha_mix =  0.700 |ddv_scf|^2 =  6.989E-09

      iter #   5 total cpu time : 10897.1 secs   av.it.:  16.0
      thresh= 8.360E-06 alpha_mix =  0.700 |ddv_scf|^2 =  8.658E-10

      iter #   6 total cpu time : 10983.0 secs   av.it.:  16.6
      thresh= 2.942E-06 alpha_mix =  0.700 |ddv_scf|^2 =  2.614E-10

      iter #   7 total cpu time : 11064.5 secs   av.it.:  15.7
      thresh= 1.617E-06 alpha_mix =  0.700 |ddv_scf|^2 =  4.068E-12

      iter #   8 total cpu time : 11150.6 secs   av.it.:  16.8
      thresh= 2.017E-07 alpha_mix =  0.700 |ddv_scf|^2 =  1.262E-13

      iter #   9 total cpu time : 11241.1 secs   av.it.:  17.6
      thresh= 3.553E-08 alpha_mix =  0.700 |ddv_scf|^2 =  5.371E-14

      iter #  10 total cpu time : 11329.0 secs   av.it.:  17.0
      thresh= 2.317E-08 alpha_mix =  0.700 |ddv_scf|^2 =  2.255E-14

      iter #  11 total cpu time : 11418.2 secs   av.it.:  16.7
      thresh= 1.502E-08 alpha_mix =  0.700 |ddv_scf|^2 =  1.385E-15

      iter #  12 total cpu time : 11509.3 secs   av.it.:  17.0
      thresh= 3.721E-09 alpha_mix =  0.700 |ddv_scf|^2 =  9.724E-16

      iter #  13 total cpu time : 11596.4 secs   av.it.:  16.6
      thresh= 3.118E-09 alpha_mix =  0.700 |ddv_scf|^2 =  2.303E-15

      iter #  14 total cpu time : 11684.0 secs   av.it.:  15.0
      thresh= 4.799E-09 alpha_mix =  0.700 |ddv_scf|^2 =  2.300E-16

      iter #  15 total cpu time : 11764.9 secs   av.it.:  16.0
      thresh= 1.517E-09 alpha_mix =  0.700 |ddv_scf|^2 =  8.625E-17

     End of self-consistent calculation

     Convergence has been achieved 


     Representation #  12 mode #  13

     Self-consistent Calculation

      iter #   1 total cpu time : 11842.3 secs   av.it.:   6.0
      thresh= 1.000E-02 alpha_mix =  0.700 |ddv_scf|^2 =  2.012E-07

      iter #   2 total cpu time : 11933.5 secs   av.it.:  18.0
      thresh= 4.485E-05 alpha_mix =  0.700 |ddv_scf|^2 =  8.636E-06

      iter #   3 total cpu time : 12015.7 secs   av.it.:  14.3
      thresh= 2.939E-04 alpha_mix =  0.700 |ddv_scf|^2 =  2.269E-07

      iter #   4 total cpu time : 12102.2 secs   av.it.:  15.0
      thresh= 4.763E-05 alpha_mix =  0.700 |ddv_scf|^2 =  1.775E-09

      iter #   5 total cpu time : 12191.0 secs   av.it.:  17.0
      thresh= 4.214E-06 alpha_mix =  0.700 |ddv_scf|^2 =  9.647E-10

      iter #   6 total cpu time : 12277.1 secs   av.it.:  16.0
      thresh= 3.106E-06 alpha_mix =  0.700 |ddv_scf|^2 =  7.136E-11

      iter #   7 total cpu time : 12360.5 secs   av.it.:  16.7
      thresh= 8.447E-07 alpha_mix =  0.700 |ddv_scf|^2 =  8.616E-12

      iter #   8 total cpu time : 12445.5 secs   av.it.:  15.9
      thresh= 2.935E-07 alpha_mix =  0.700 |ddv_scf|^2 =  8.445E-14

      iter #   9 total cpu time : 12536.9 secs   av.it.:  17.9
      thresh= 2.906E-08 alpha_mix =  0.700 |ddv_scf|^2 =  2.764E-13

      iter #  10 total cpu time : 12618.3 secs   av.it.:  15.7
      thresh= 5.258E-08 alpha_mix =  0.700 |ddv_scf|^2 =  2.120E-14

      iter #  11 total cpu time : 12704.5 secs   av.it.:  16.0
      thresh= 1.456E-08 alpha_mix =  0.700 |ddv_scf|^2 =  2.780E-15

      iter #  12 total cpu time : 12790.6 secs   av.it.:  16.0
      thresh= 5.273E-09 alpha_mix =  0.700 |ddv_scf|^2 =  1.083E-15

      iter #  13 total cpu time : 12877.4 secs   av.it.:  16.0
      thresh= 3.292E-09 alpha_mix =  0.700 |ddv_scf|^2 =  1.596E-16

      iter #  14 total cpu time : 12962.9 secs   av.it.:  17.2
      thresh= 1.263E-09 alpha_mix =  0.700 |ddv_scf|^2 =  4.500E-17

     End of self-consistent calculation

     Convergence has been achieved 


     Representation #  13 mode #  14

     Self-consistent Calculation

      iter #   1 total cpu time : 13038.2 secs   av.it.:   6.0
      thresh= 1.000E-02 alpha_mix =  0.700 |ddv_scf|^2 =  2.295E-07

      iter #   2 total cpu time : 13129.7 secs   av.it.:  17.9
      thresh= 4.791E-05 alpha_mix =  0.700 |ddv_scf|^2 =  9.397E-06

      iter #   3 total cpu time : 13213.5 secs   av.it.:  14.4
      thresh= 3.066E-04 alpha_mix =  0.700 |ddv_scf|^2 =  2.743E-07

      iter #   4 total cpu time : 13295.4 secs   av.it.:  15.0
      thresh= 5.238E-05 alpha_mix =  0.700 |ddv_scf|^2 =  1.710E-09

      iter #   5 total cpu time : 13386.7 secs   av.it.:  16.6
      thresh= 4.135E-06 alpha_mix =  0.700 |ddv_scf|^2 =  9.995E-10

      iter #   6 total cpu time : 13470.1 secs   av.it.:  15.9
      thresh= 3.162E-06 alpha_mix =  0.700 |ddv_scf|^2 =  4.678E-11

      iter #   7 total cpu time : 13560.5 secs   av.it.:  16.9
      thresh= 6.839E-07 alpha_mix =  0.700 |ddv_scf|^2 =  5.549E-12

      iter #   8 total cpu time : 13646.0 secs   av.it.:  16.8
      thresh= 2.356E-07 alpha_mix =  0.700 |ddv_scf|^2 =  3.391E-13

      iter #   9 total cpu time : 13739.6 secs   av.it.:  17.1
      thresh= 5.824E-08 alpha_mix =  0.700 |ddv_scf|^2 =  1.411E-13

      iter #  10 total cpu time : 13826.2 secs   av.it.:  16.5
      thresh= 3.757E-08 alpha_mix =  0.700 |ddv_scf|^2 =  3.222E-14

      iter #  11 total cpu time : 13910.6 secs   av.it.:  16.0
      thresh= 1.795E-08 alpha_mix =  0.700 |ddv_scf|^2 =  8.084E-16

      iter #  12 total cpu time : 14001.2 secs   av.it.:  17.8
      thresh= 2.843E-09 alpha_mix =  0.700 |ddv_scf|^2 =  9.589E-16

      iter #  13 total cpu time : 14083.5 secs   av.it.:  16.4
      thresh= 3.097E-09 alpha_mix =  0.700 |ddv_scf|^2 =  2.590E-16

      iter #  14 total cpu time : 14161.1 secs   av.it.:  16.0
      thresh= 1.609E-09 alpha_mix =  0.700 |ddv_scf|^2 =  4.251E-17

     End of self-consistent calculation

     Convergence has been achieved 


     Representation #  14 modes #  15  16

     Self-consistent Calculation

      iter #   1 total cpu time : 14292.4 secs   av.it.:   6.0
      thresh= 1.000E-02 alpha_mix =  0.700 |ddv_scf|^2 =  4.285E-08

      iter #   2 total cpu time : 14453.7 secs   av.it.:  19.2
      thresh= 2.070E-05 alpha_mix =  0.700 |ddv_scf|^2 =  1.929E-06

      iter #   3 total cpu time : 14593.5 secs   av.it.:  15.4
      thresh= 1.389E-04 alpha_mix =  0.700 |ddv_scf|^2 =  6.183E-08

      iter #   4 total cpu time : 14751.2 secs   av.it.:  16.2
      thresh= 2.487E-05 alpha_mix =  0.700 |ddv_scf|^2 =  3.668E-09

      iter #   5 total cpu time : 14912.6 secs   av.it.:  16.7
      thresh= 6.057E-06 alpha_mix =  0.700 |ddv_scf|^2 =  3.820E-09

      iter #   6 total cpu time : 15066.9 secs   av.it.:  16.1
      thresh= 6.181E-06 alpha_mix =  0.700 |ddv_scf|^2 =  1.246E-10

      iter #   7 total cpu time : 15237.4 secs   av.it.:  17.5
      thresh= 1.116E-06 alpha_mix =  0.700 |ddv_scf|^2 =  1.178E-11

      iter #   8 total cpu time : 15408.6 secs   av.it.:  18.2
      thresh= 3.432E-07 alpha_mix =  0.700 |ddv_scf|^2 =  7.908E-13

      iter #   9 total cpu time : 15573.4 secs   av.it.:  19.1
      thresh= 8.892E-08 alpha_mix =  0.700 |ddv_scf|^2 =  2.137E-11

      iter #  10 total cpu time : 15722.4 secs   av.it.:  15.5
      thresh= 4.623E-07 alpha_mix =  0.700 |ddv_scf|^2 =  9.938E-13

      iter #  11 total cpu time : 15887.7 secs   av.it.:  17.0
      thresh= 9.969E-08 alpha_mix =  0.700 |ddv_scf|^2 =  2.218E-13

      iter #  12 total cpu time : 16054.7 secs   av.it.:  17.0
      thresh= 4.710E-08 alpha_mix =  0.700 |ddv_scf|^2 =  1.529E-13

      iter #  13 total cpu time : 16215.3 secs   av.it.:  16.6
      thresh= 3.910E-08 alpha_mix =  0.700 |ddv_scf|^2 =  7.606E-15

      iter #  14 total cpu time : 16378.8 secs   av.it.:  18.4
      thresh= 8.721E-09 alpha_mix =  0.700 |ddv_scf|^2 =  5.414E-15

      iter #  15 total cpu time : 16540.6 secs   av.it.:  17.7
      thresh= 7.358E-09 alpha_mix =  0.700 |ddv_scf|^2 =  2.266E-15

      iter #  16 total cpu time : 16697.8 secs   av.it.:  16.8
      thresh= 4.761E-09 alpha_mix =  0.700 |ddv_scf|^2 =  4.284E-15

      iter #  17 total cpu time : 16849.6 secs   av.it.:  16.2
      thresh= 6.545E-09 alpha_mix =  0.700 |ddv_scf|^2 =  6.941E-16

      iter #  18 total cpu time : 16994.6 secs   av.it.:  16.8
      thresh= 2.635E-09 alpha_mix =  0.700 |ddv_scf|^2 =  6.648E-17

     End of self-consistent calculation

     Convergence has been achieved 


     Representation #  15 mode #  17

     Self-consistent Calculation

      iter #   1 total cpu time : 17077.9 secs   av.it.:   6.1
      thresh= 1.000E-02 alpha_mix =  0.700 |ddv_scf|^2 =  9.693E-08

      iter #   2 total cpu time : 17164.8 secs   av.it.:  17.8
      thresh= 3.113E-05 alpha_mix =  0.700 |ddv_scf|^2 =  5.157E-07

      iter #   3 total cpu time : 17251.8 secs   av.it.:  15.8
      thresh= 7.181E-05 alpha_mix =  0.700 |ddv_scf|^2 =  1.536E-07

      iter #   4 total cpu time : 17333.8 secs   av.it.:  14.4
      thresh= 3.919E-05 alpha_mix =  0.700 |ddv_scf|^2 =  6.127E-09

      iter #   5 total cpu time : 17420.1 secs   av.it.:  16.0
      thresh= 7.827E-06 alpha_mix =  0.700 |ddv_scf|^2 =  3.257E-10

      iter #   6 total cpu time : 17503.5 secs   av.it.:  16.7
      thresh= 1.805E-06 alpha_mix =  0.700 |ddv_scf|^2 =  9.044E-12

      iter #   7 total cpu time : 17587.4 secs   av.it.:  17.0
      thresh= 3.007E-07 alpha_mix =  0.700 |ddv_scf|^2 =  1.835E-12

      iter #   8 total cpu time : 17670.5 secs   av.it.:  17.0
      thresh= 1.355E-07 alpha_mix =  0.700 |ddv_scf|^2 =  3.555E-13

      iter #   9 total cpu time : 17754.8 secs   av.it.:  16.2
      thresh= 5.963E-08 alpha_mix =  0.700 |ddv_scf|^2 =  1.379E-13

      iter #  10 total cpu time : 17841.8 secs   av.it.:  16.9
      thresh= 3.714E-08 alpha_mix =  0.700 |ddv_scf|^2 =  5.116E-13

      iter #  11 total cpu time : 17922.6 secs   av.it.:  14.9
      thresh= 7.153E-08 alpha_mix =  0.700 |ddv_scf|^2 =  1.046E-14

      iter #  12 total cpu time : 18014.3 secs   av.it.:  16.7
      thresh= 1.023E-08 alpha_mix =  0.700 |ddv_scf|^2 =  1.894E-15

      iter #  13 total cpu time : 18105.9 secs   av.it.:  16.8
      thresh= 4.352E-09 alpha_mix =  0.700 |ddv_scf|^2 =  9.033E-16

      iter #  14 total cpu time : 18190.2 secs   av.it.:  16.7
      thresh= 3.005E-09 alpha_mix =  0.700 |ddv_scf|^2 =  3.784E-16

      iter #  15 total cpu time : 18266.8 secs   av.it.:  15.6
      thresh= 1.945E-09 alpha_mix =  0.700 |ddv_scf|^2 =  1.969E-17

     End of self-consistent calculation

     Convergence has been achieved 


     Representation #  16 mode #  18

     Self-consistent Calculation

      iter #   1 total cpu time : 18346.4 secs   av.it.:   6.3
      thresh= 1.000E-02 alpha_mix =  0.700 |ddv_scf|^2 =  1.431E-07

      iter #   2 total cpu time : 18438.7 secs   av.it.:  18.0
      thresh= 3.783E-05 alpha_mix =  0.700 |ddv_scf|^2 =  2.118E-06

      iter #   3 total cpu time : 18522.7 secs   av.it.:  15.0
      thresh= 1.455E-04 alpha_mix =  0.700 |ddv_scf|^2 =  7.324E-07

      iter #   4 total cpu time : 18608.7 secs   av.it.:  14.7
      thresh= 8.558E-05 alpha_mix =  0.700 |ddv_scf|^2 =  4.134E-09

      iter #   5 total cpu time : 18695.4 secs   av.it.:  16.9
      thresh= 6.429E-06 alpha_mix =  0.700 |ddv_scf|^2 =  2.089E-10

      iter #   6 total cpu time : 18783.8 secs   av.it.:  16.8
      thresh= 1.445E-06 alpha_mix =  0.700 |ddv_scf|^2 =  6.589E-11

      iter #   7 total cpu time : 18874.7 secs   av.it.:  16.6
      thresh= 8.117E-07 alpha_mix =  0.700 |ddv_scf|^2 =  4.566E-12

      iter #   8 total cpu time : 18968.4 secs   av.it.:  16.8
      thresh= 2.137E-07 alpha_mix =  0.700 |ddv_scf|^2 =  7.059E-13

      iter #   9 total cpu time : 19053.8 secs   av.it.:  16.0
      thresh= 8.402E-08 alpha_mix =  0.700 |ddv_scf|^2 =  2.904E-14

      iter #  10 total cpu time : 19142.5 secs   av.it.:  18.0
      thresh= 1.704E-08 alpha_mix =  0.700 |ddv_scf|^2 =  2.991E-13

      iter #  11 total cpu time : 19229.8 secs   av.it.:  15.5
      thresh= 5.469E-08 alpha_mix =  0.700 |ddv_scf|^2 =  2.447E-15

      iter #  12 total cpu time : 19315.7 secs   av.it.:  16.9
      thresh= 4.947E-09 alpha_mix =  0.700 |ddv_scf|^2 =  5.945E-16

      iter #  13 total cpu time : 19403.9 secs   av.it.:  17.0
      thresh= 2.438E-09 alpha_mix =  0.700 |ddv_scf|^2 =  1.766E-16

      iter #  14 total cpu time : 19490.0 secs   av.it.:  17.0
      thresh= 1.329E-09 alpha_mix =  0.700 |ddv_scf|^2 =  3.668E-17

     End of self-consistent calculation

     Convergence has been achieved 


     Representation #  17 mode #  19

     Self-consistent Calculation

      iter #   1 total cpu time : 19571.4 secs   av.it.:   6.4
      thresh= 1.000E-02 alpha_mix =  0.700 |ddv_scf|^2 =  5.660E-08

      iter #   2 total cpu time : 19658.7 secs   av.it.:  18.6
      thresh= 2.379E-05 alpha_mix =  0.700 |ddv_scf|^2 =  8.140E-07

      iter #   3 total cpu time : 19740.4 secs   av.it.:  15.0
      thresh= 9.022E-05 alpha_mix =  0.700 |ddv_scf|^2 =  3.158E-07

      iter #   4 total cpu time : 19824.8 secs   av.it.:  15.0
      thresh= 5.620E-05 alpha_mix =  0.700 |ddv_scf|^2 =  6.932E-09

      iter #   5 total cpu time : 19913.4 secs   av.it.:  16.2
      thresh= 8.326E-06 alpha_mix =  0.700 |ddv_scf|^2 =  8.193E-10

      iter #   6 total cpu time : 20005.8 secs   av.it.:  16.0
      thresh= 2.862E-06 alpha_mix =  0.700 |ddv_scf|^2 =  7.152E-11

      iter #   7 total cpu time : 20091.6 secs   av.it.:  16.3
      thresh= 8.457E-07 alpha_mix =  0.700 |ddv_scf|^2 =  3.223E-12

      iter #   8 total cpu time : 20185.1 secs   av.it.:  17.0
      thresh= 1.795E-07 alpha_mix =  0.700 |ddv_scf|^2 =  1.844E-13

      iter #   9 total cpu time : 20277.4 secs   av.it.:  17.0
      thresh= 4.294E-08 alpha_mix =  0.700 |ddv_scf|^2 =  4.884E-14

      iter #  10 total cpu time : 20367.3 secs   av.it.:  17.9
      thresh= 2.210E-08 alpha_mix =  0.700 |ddv_scf|^2 =  5.174E-14

      iter #  11 total cpu time : 20454.7 secs   av.it.:  16.8
      thresh= 2.275E-08 alpha_mix =  0.700 |ddv_scf|^2 =  5.361E-15

      iter #  12 total cpu time : 20542.2 secs   av.it.:  16.4
      thresh= 7.322E-09 alpha_mix =  0.700 |ddv_scf|^2 =  5.886E-15

      iter #  13 total cpu time : 20627.1 secs   av.it.:  15.8
      thresh= 7.672E-09 alpha_mix =  0.700 |ddv_scf|^2 =  2.353E-15

      iter #  14 total cpu time : 20710.7 secs   av.it.:  15.8
      thresh= 4.851E-09 alpha_mix =  0.700 |ddv_scf|^2 =  2.444E-16

      iter #  15 total cpu time : 20799.5 secs   av.it.:  16.8
      thresh= 1.563E-09 alpha_mix =  0.700 |ddv_scf|^2 =  1.287E-16

      iter #  16 total cpu time : 20883.1 secs   av.it.:  16.6
      thresh= 1.134E-09 alpha_mix =  0.700 |ddv_scf|^2 =  4.281E-17

     End of self-consistent calculation

     Convergence has been achieved 


     Representation #  18 mode #  20

     Self-consistent Calculation

      iter #   1 total cpu time : 20959.5 secs   av.it.:   6.0
      thresh= 1.000E-02 alpha_mix =  0.700 |ddv_scf|^2 =  8.419E-09

      iter #   2 total cpu time : 21055.5 secs   av.it.:  18.9
      thresh= 9.175E-06 alpha_mix =  0.700 |ddv_scf|^2 =  1.247E-07

      iter #   3 total cpu time : 21142.4 secs   av.it.:  15.7
      thresh= 3.532E-05 alpha_mix =  0.700 |ddv_scf|^2 =  7.758E-09

      iter #   4 total cpu time : 21231.6 secs   av.it.:  16.0
      thresh= 8.808E-06 alpha_mix =  0.700 |ddv_scf|^2 =  1.996E-10

      iter #   5 total cpu time : 21318.4 secs   av.it.:  16.8
      thresh= 1.413E-06 alpha_mix =  0.700 |ddv_scf|^2 =  1.935E-12

      iter #   6 total cpu time : 21406.6 secs   av.it.:  17.5
      thresh= 1.391E-07 alpha_mix =  0.700 |ddv_scf|^2 =  5.725E-14

      iter #   7 total cpu time : 21496.4 secs   av.it.:  17.8
      thresh= 2.393E-08 alpha_mix =  0.700 |ddv_scf|^2 =  5.007E-15

      iter #   8 total cpu time : 21590.4 secs   av.it.:  17.8
      thresh= 7.076E-09 alpha_mix =  0.700 |ddv_scf|^2 =  6.926E-16

      iter #   9 total cpu time : 21676.0 secs   av.it.:  17.5
      thresh= 2.632E-09 alpha_mix =  0.700 |ddv_scf|^2 =  7.836E-17

     End of self-consistent calculation

     Convergence has been achieved 


     Representation #  19 mode #  21

     Self-consistent Calculation

      iter #   1 total cpu time : 21757.8 secs   av.it.:   7.6
      thresh= 1.000E-02 alpha_mix =  0.700 |ddv_scf|^2 =  3.265E-08

      iter #   2 total cpu time : 21843.6 secs   av.it.:  18.3
      thresh= 1.807E-05 alpha_mix =  0.700 |ddv_scf|^2 =  3.647E-08

      iter #   3 total cpu time : 21936.9 secs   av.it.:  17.7
      thresh= 1.910E-05 alpha_mix =  0.700 |ddv_scf|^2 =  9.418E-08

      iter #   4 total cpu time : 22023.5 secs   av.it.:  15.6
      thresh= 3.069E-05 alpha_mix =  0.700 |ddv_scf|^2 =  2.937E-10

      iter #   5 total cpu time : 22109.5 secs   av.it.:  17.0
      thresh= 1.714E-06 alpha_mix =  0.700 |ddv_scf|^2 =  1.425E-11

      iter #   6 total cpu time : 22203.1 secs   av.it.:  17.3
      thresh= 3.775E-07 alpha_mix =  0.700 |ddv_scf|^2 =  1.111E-12

      iter #   7 total cpu time : 22291.0 secs   av.it.:  17.0
      thresh= 1.054E-07 alpha_mix =  0.700 |ddv_scf|^2 =  2.448E-14

      iter #   8 total cpu time : 22381.6 secs   av.it.:  18.1
      thresh= 1.565E-08 alpha_mix =  0.700 |ddv_scf|^2 =  3.535E-15

      iter #   9 total cpu time : 22475.4 secs   av.it.:  18.2
      thresh= 5.946E-09 alpha_mix =  0.700 |ddv_scf|^2 =  1.393E-15

      iter #  10 total cpu time : 22560.8 secs   av.it.:  17.2
      thresh= 3.732E-09 alpha_mix =  0.700 |ddv_scf|^2 =  7.264E-17

     End of self-consistent calculation

     Convergence has been achieved 


     Representation #  20 mode #  22

     Self-consistent Calculation

      iter #   1 total cpu time : 22636.8 secs   av.it.:   6.0
      thresh= 1.000E-02 alpha_mix =  0.700 |ddv_scf|^2 =  9.925E-09

      iter #   2 total cpu time : 22729.5 secs   av.it.:  18.8
      thresh= 9.962E-06 alpha_mix =  0.700 |ddv_scf|^2 =  2.059E-07

      iter #   3 total cpu time : 22818.9 secs   av.it.:  15.7
      thresh= 4.538E-05 alpha_mix =  0.700 |ddv_scf|^2 =  3.956E-09

      iter #   4 total cpu time : 22908.0 secs   av.it.:  16.5
      thresh= 6.289E-06 alpha_mix =  0.700 |ddv_scf|^2 =  9.606E-11

      iter #   5 total cpu time : 23000.2 secs   av.it.:  16.9
      thresh= 9.801E-07 alpha_mix =  0.700 |ddv_scf|^2 =  2.917E-12

      iter #   6 total cpu time : 23105.3 secs   av.it.:  17.1
      thresh= 1.708E-07 alpha_mix =  0.700 |ddv_scf|^2 =  3.689E-14

      iter #   7 total cpu time : 23212.8 secs   av.it.:  17.7
      thresh= 1.921E-08 alpha_mix =  0.700 |ddv_scf|^2 =  6.803E-15

      iter #   8 total cpu time : 23303.8 secs   av.it.:  17.6
      thresh= 8.248E-09 alpha_mix =  0.700 |ddv_scf|^2 =  1.143E-15

      iter #   9 total cpu time : 23395.5 secs   av.it.:  17.6
      thresh= 3.381E-09 alpha_mix =  0.700 |ddv_scf|^2 =  6.153E-17

     End of self-consistent calculation

     Convergence has been achieved 


     Representation #  21 mode #  23

     Self-consistent Calculation

      iter #   1 total cpu time : 23468.7 secs   av.it.:   5.2
      thresh= 1.000E-02 alpha_mix =  0.700 |ddv_scf|^2 =  5.609E-09

      iter #   2 total cpu time : 23560.5 secs   av.it.:  18.4
      thresh= 7.489E-06 alpha_mix =  0.700 |ddv_scf|^2 =  2.495E-08

      iter #   3 total cpu time : 23654.2 secs   av.it.:  16.7
      thresh= 1.580E-05 alpha_mix =  0.700 |ddv_scf|^2 =  2.011E-08

      iter #   4 total cpu time : 23747.3 secs   av.it.:  15.9
      thresh= 1.418E-05 alpha_mix =  0.700 |ddv_scf|^2 =  2.052E-10

      iter #   5 total cpu time : 23840.3 secs   av.it.:  16.8
      thresh= 1.432E-06 alpha_mix =  0.700 |ddv_scf|^2 =  1.463E-12

      iter #   6 total cpu time : 23933.8 secs   av.it.:  17.6
      thresh= 1.210E-07 alpha_mix =  0.700 |ddv_scf|^2 =  4.938E-14

      iter #   7 total cpu time : 24028.2 secs   av.it.:  17.8
      thresh= 2.222E-08 alpha_mix =  0.700 |ddv_scf|^2 =  3.930E-15

      iter #   8 total cpu time : 24122.1 secs   av.it.:  17.7
      thresh= 6.269E-09 alpha_mix =  0.700 |ddv_scf|^2 =  4.701E-16

      iter #   9 total cpu time : 24202.1 secs   av.it.:  17.4
      thresh= 2.168E-09 alpha_mix =  0.700 |ddv_scf|^2 =  1.896E-17

     End of self-consistent calculation

     Convergence has been achieved 


     Representation #  22 mode #  24

     Self-consistent Calculation

      iter #   1 total cpu time : 24288.6 secs   av.it.:   8.0
      thresh= 1.000E-02 alpha_mix =  0.700 |ddv_scf|^2 =  4.348E-07

      iter #   2 total cpu time : 24374.2 secs   av.it.:  18.0
      thresh= 6.594E-05 alpha_mix =  0.700 |ddv_scf|^2 =  1.134E-05

      iter #   3 total cpu time : 24473.4 secs   av.it.:  14.7
      thresh= 3.367E-04 alpha_mix =  0.700 |ddv_scf|^2 =  1.388E-06

      iter #   4 total cpu time : 24560.8 secs   av.it.:  15.0
      thresh= 1.178E-04 alpha_mix =  0.700 |ddv_scf|^2 =  7.624E-09

      iter #   5 total cpu time : 24656.9 secs   av.it.:  17.0
      thresh= 8.732E-06 alpha_mix =  0.700 |ddv_scf|^2 =  1.698E-09

      iter #   6 total cpu time : 24746.4 secs   av.it.:  16.9
      thresh= 4.121E-06 alpha_mix =  0.700 |ddv_scf|^2 =  1.709E-10

      iter #   7 total cpu time : 24839.1 secs   av.it.:  16.9
      thresh= 1.307E-06 alpha_mix =  0.700 |ddv_scf|^2 =  5.296E-12

      iter #   8 total cpu time : 24931.2 secs   av.it.:  17.8
      thresh= 2.301E-07 alpha_mix =  0.700 |ddv_scf|^2 =  1.387E-11

      iter #   9 total cpu time : 25019.6 secs   av.it.:  15.3
      thresh= 3.724E-07 alpha_mix =  0.700 |ddv_scf|^2 =  1.563E-12

      iter #  10 total cpu time : 25108.3 secs   av.it.:  16.5
      thresh= 1.250E-07 alpha_mix =  0.700 |ddv_scf|^2 =  1.255E-12

      iter #  11 total cpu time : 25199.1 secs   av.it.:  16.0
      thresh= 1.120E-07 alpha_mix =  0.700 |ddv_scf|^2 =  1.884E-13

      iter #  12 total cpu time : 25287.1 secs   av.it.:  16.1
      thresh= 4.341E-08 alpha_mix =  0.700 |ddv_scf|^2 =  2.393E-14

      iter #  13 total cpu time : 25373.8 secs   av.it.:  17.2
      thresh= 1.547E-08 alpha_mix =  0.700 |ddv_scf|^2 =  2.371E-14

      iter #  14 total cpu time : 25461.0 secs   av.it.:  16.3
      thresh= 1.540E-08 alpha_mix =  0.700 |ddv_scf|^2 =  2.287E-15

      iter #  15 total cpu time : 25547.3 secs   av.it.:  16.7
      thresh= 4.782E-09 alpha_mix =  0.700 |ddv_scf|^2 =  4.272E-16

      iter #  16 total cpu time : 25627.7 secs   av.it.:  16.4
      thresh= 2.067E-09 alpha_mix =  0.700 |ddv_scf|^2 =  1.315E-16

      iter #  17 total cpu time : 25709.3 secs   av.it.:  16.4
      thresh= 1.147E-09 alpha_mix =  0.700 |ddv_scf|^2 =  2.017E-17

     End of self-consistent calculation

     Convergence has been achieved 


     Representation #  23 mode #  25

     Self-consistent Calculation

      iter #   1 total cpu time : 25790.2 secs   av.it.:   6.0
      thresh= 1.000E-02 alpha_mix =  0.700 |ddv_scf|^2 =  1.504E-08

      iter #   2 total cpu time : 25878.7 secs   av.it.:  18.7
      thresh= 1.226E-05 alpha_mix =  0.700 |ddv_scf|^2 =  3.478E-07

      iter #   3 total cpu time : 25959.6 secs   av.it.:  15.6
      thresh= 5.897E-05 alpha_mix =  0.700 |ddv_scf|^2 =  5.764E-09

      iter #   4 total cpu time : 26048.4 secs   av.it.:  16.6
      thresh= 7.592E-06 alpha_mix =  0.700 |ddv_scf|^2 =  2.407E-11

      iter #   5 total cpu time : 26134.3 secs   av.it.:  17.4
      thresh= 4.906E-07 alpha_mix =  0.700 |ddv_scf|^2 =  5.902E-13

      iter #   6 total cpu time : 26223.0 secs   av.it.:  17.7
      thresh= 7.683E-08 alpha_mix =  0.700 |ddv_scf|^2 =  7.133E-14

      iter #   7 total cpu time : 26311.1 secs   av.it.:  17.7
      thresh= 2.671E-08 alpha_mix =  0.700 |ddv_scf|^2 =  7.775E-15

      iter #   8 total cpu time : 26397.6 secs   av.it.:  17.8
      thresh= 8.818E-09 alpha_mix =  0.700 |ddv_scf|^2 =  1.506E-15

      iter #   9 total cpu time : 26479.4 secs   av.it.:  17.4
      thresh= 3.881E-09 alpha_mix =  0.700 |ddv_scf|^2 =  3.476E-17

     End of self-consistent calculation

     Convergence has been achieved 


     Representation #  24 mode #  26

     Self-consistent Calculation

      iter #   1 total cpu time : 26560.0 secs   av.it.:   7.6
      thresh= 1.000E-02 alpha_mix =  0.700 |ddv_scf|^2 =  3.376E-08

      iter #   2 total cpu time : 26650.7 secs   av.it.:  18.8
      thresh= 1.837E-05 alpha_mix =  0.700 |ddv_scf|^2 =  3.606E-07

      iter #   3 total cpu time : 26735.0 secs   av.it.:  15.9
      thresh= 6.005E-05 alpha_mix =  0.700 |ddv_scf|^2 =  6.141E-08

      iter #   4 total cpu time : 26822.9 secs   av.it.:  16.1
      thresh= 2.478E-05 alpha_mix =  0.700 |ddv_scf|^2 =  1.051E-10

      iter #   5 total cpu time : 26912.9 secs   av.it.:  17.9
      thresh= 1.025E-06 alpha_mix =  0.700 |ddv_scf|^2 =  8.832E-12

      iter #   6 total cpu time : 26998.5 secs   av.it.:  17.6
      thresh= 2.972E-07 alpha_mix =  0.700 |ddv_scf|^2 =  2.413E-13

      iter #   7 total cpu time : 27086.4 secs   av.it.:  17.9
      thresh= 4.912E-08 alpha_mix =  0.700 |ddv_scf|^2 =  4.830E-14

      iter #   8 total cpu time : 27171.8 secs   av.it.:  17.9
      thresh= 2.198E-08 alpha_mix =  0.700 |ddv_scf|^2 =  2.083E-14

      iter #   9 total cpu time : 27260.7 secs   av.it.:  17.2
      thresh= 1.443E-08 alpha_mix =  0.700 |ddv_scf|^2 =  8.781E-15

      iter #  10 total cpu time : 27341.5 secs   av.it.:  16.4
      thresh= 9.371E-09 alpha_mix =  0.700 |ddv_scf|^2 =  2.909E-16

      iter #  11 total cpu time : 27432.2 secs   av.it.:  18.5
      thresh= 1.706E-09 alpha_mix =  0.700 |ddv_scf|^2 =  2.379E-16

      iter #  12 total cpu time : 27513.1 secs   av.it.:  16.9
      thresh= 1.542E-09 alpha_mix =  0.700 |ddv_scf|^2 =  7.228E-18

     End of self-consistent calculation

     Convergence has been achieved 


     Representation #  25 mode #  27

     Self-consistent Calculation

      iter #   1 total cpu time : 27589.8 secs   av.it.:   6.0
      thresh= 1.000E-02 alpha_mix =  0.700 |ddv_scf|^2 =  2.251E-08

      iter #   2 total cpu time : 27683.1 secs   av.it.:  18.9
      thresh= 1.500E-05 alpha_mix =  0.700 |ddv_scf|^2 =  5.392E-07

      iter #   3 total cpu time : 27766.3 secs   av.it.:  15.7
      thresh= 7.343E-05 alpha_mix =  0.700 |ddv_scf|^2 =  8.539E-09

      iter #   4 total cpu time : 27847.3 secs   av.it.:  16.7
      thresh= 9.241E-06 alpha_mix =  0.700 |ddv_scf|^2 =  6.771E-11

      iter #   5 total cpu time : 27930.5 secs   av.it.:  17.2
      thresh= 8.229E-07 alpha_mix =  0.700 |ddv_scf|^2 =  2.211E-12

      iter #   6 total cpu time : 28014.1 secs   av.it.:  17.7
      thresh= 1.487E-07 alpha_mix =  0.700 |ddv_scf|^2 =  2.075E-13

      iter #   7 total cpu time : 28098.9 secs   av.it.:  17.4
      thresh= 4.556E-08 alpha_mix =  0.700 |ddv_scf|^2 =  6.988E-15

      iter #   8 total cpu time : 28180.6 secs   av.it.:  17.7
      thresh= 8.359E-09 alpha_mix =  0.700 |ddv_scf|^2 =  7.322E-16

      iter #   9 total cpu time : 28263.5 secs   av.it.:  18.0
      thresh= 2.706E-09 alpha_mix =  0.700 |ddv_scf|^2 =  2.428E-16

      iter #  10 total cpu time : 28343.7 secs   av.it.:  17.5
      thresh= 1.558E-09 alpha_mix =  0.700 |ddv_scf|^2 =  1.338E-16

      iter #  11 total cpu time : 28421.8 secs   av.it.:  16.7
      thresh= 1.157E-09 alpha_mix =  0.700 |ddv_scf|^2 =  1.913E-17

     End of self-consistent calculation

     Convergence has been achieved 


     Representation #  26 mode #  28

     Self-consistent Calculation

      iter #   1 total cpu time : 28487.6 secs   av.it.:   6.0
      thresh= 1.000E-02 alpha_mix =  0.700 |ddv_scf|^2 =  3.464E-08

      iter #   2 total cpu time : 28572.3 secs   av.it.:  18.7
      thresh= 1.861E-05 alpha_mix =  0.700 |ddv_scf|^2 =  8.330E-07

      iter #   3 total cpu time : 28651.8 secs   av.it.:  15.6
      thresh= 9.127E-05 alpha_mix =  0.700 |ddv_scf|^2 =  1.374E-08

      iter #   4 total cpu time : 28733.6 secs   av.it.:  16.6
      thresh= 1.172E-05 alpha_mix =  0.700 |ddv_scf|^2 =  3.077E-11

      iter #   5 total cpu time : 28823.9 secs   av.it.:  17.7
      thresh= 5.547E-07 alpha_mix =  0.700 |ddv_scf|^2 =  9.626E-13

      iter #   6 total cpu time : 28905.0 secs   av.it.:  17.9
      thresh= 9.811E-08 alpha_mix =  0.700 |ddv_scf|^2 =  1.351E-13

      iter #   7 total cpu time : 28988.3 secs   av.it.:  17.8
      thresh= 3.676E-08 alpha_mix =  0.700 |ddv_scf|^2 =  1.876E-14

      iter #   8 total cpu time : 29072.7 secs   av.it.:  17.4
      thresh= 1.370E-08 alpha_mix =  0.700 |ddv_scf|^2 =  7.766E-15

      iter #   9 total cpu time : 29150.8 secs   av.it.:  16.7
      thresh= 8.813E-09 alpha_mix =  0.700 |ddv_scf|^2 =  1.026E-16

      iter #  10 total cpu time : 29229.2 secs   av.it.:  17.9
      thresh= 1.013E-09 alpha_mix =  0.700 |ddv_scf|^2 =  5.742E-17

     End of self-consistent calculation

     Convergence has been achieved 


     Representation #  27 mode #  29

     Self-consistent Calculation

      iter #   1 total cpu time : 29294.5 secs   av.it.:   6.0
      thresh= 1.000E-02 alpha_mix =  0.700 |ddv_scf|^2 =  4.711E-08

      iter #   2 total cpu time : 29376.4 secs   av.it.:  18.7
      thresh= 2.170E-05 alpha_mix =  0.700 |ddv_scf|^2 =  1.207E-06

      iter #   3 total cpu time : 29455.5 secs   av.it.:  15.6
      thresh= 1.099E-04 alpha_mix =  0.700 |ddv_scf|^2 =  1.484E-08

      iter #   4 total cpu time : 29529.8 secs   av.it.:  16.5
      thresh= 1.218E-05 alpha_mix =  0.700 |ddv_scf|^2 =  5.172E-11

      iter #   5 total cpu time : 29613.7 secs   av.it.:  17.7
      thresh= 7.192E-07 alpha_mix =  0.700 |ddv_scf|^2 =  2.051E-12

      iter #   6 total cpu time : 29698.4 secs   av.it.:  17.8
      thresh= 1.432E-07 alpha_mix =  0.700 |ddv_scf|^2 =  2.736E-13

      iter #   7 total cpu time : 29774.0 secs   av.it.:  17.5
      thresh= 5.230E-08 alpha_mix =  0.700 |ddv_scf|^2 =  2.834E-14

      iter #   8 total cpu time : 29852.5 secs   av.it.:  17.2
      thresh= 1.683E-08 alpha_mix =  0.700 |ddv_scf|^2 =  2.297E-15

      iter #   9 total cpu time : 29929.7 secs   av.it.:  17.5
      thresh= 4.793E-09 alpha_mix =  0.700 |ddv_scf|^2 =  1.646E-16

      iter #  10 total cpu time : 30009.2 secs   av.it.:  18.0
      thresh= 1.283E-09 alpha_mix =  0.700 |ddv_scf|^2 =  1.707E-16

      iter #  11 total cpu time : 30082.5 secs   av.it.:  16.7
      thresh= 1.307E-09 alpha_mix =  0.700 |ddv_scf|^2 =  1.364E-18

     End of self-consistent calculation

     Convergence has been achieved 


     Representation #  28 mode #  30

     Self-consistent Calculation

      iter #   1 total cpu time : 30146.9 secs   av.it.:   8.0
      thresh= 1.000E-02 alpha_mix =  0.700 |ddv_scf|^2 =  1.364E-07

      iter #   2 total cpu time : 30223.6 secs   av.it.:  18.8
      thresh= 3.693E-05 alpha_mix =  0.700 |ddv_scf|^2 =  2.512E-06

      iter #   3 total cpu time : 30305.5 secs   av.it.:  15.7
      thresh= 1.585E-04 alpha_mix =  0.700 |ddv_scf|^2 =  1.275E-07

      iter #   4 total cpu time : 30384.2 secs   av.it.:  16.5
      thresh= 3.570E-05 alpha_mix =  0.700 |ddv_scf|^2 =  7.768E-10

      iter #   5 total cpu time : 30464.8 secs   av.it.:  17.1
      thresh= 2.787E-06 alpha_mix =  0.700 |ddv_scf|^2 =  1.259E-11

      iter #   6 total cpu time : 30543.9 secs   av.it.:  17.7
      thresh= 3.549E-07 alpha_mix =  0.700 |ddv_scf|^2 =  2.679E-13

      iter #   7 total cpu time : 30629.0 secs   av.it.:  18.0
      thresh= 5.175E-08 alpha_mix =  0.700 |ddv_scf|^2 =  4.965E-14

      iter #   8 total cpu time : 30707.9 secs   av.it.:  17.8
      thresh= 2.228E-08 alpha_mix =  0.700 |ddv_scf|^2 =  7.484E-15

      iter #   9 total cpu time : 30784.2 secs   av.it.:  17.8
      thresh= 8.651E-09 alpha_mix =  0.700 |ddv_scf|^2 =  7.839E-16

      iter #  10 total cpu time : 30862.8 secs   av.it.:  18.0
      thresh= 2.800E-09 alpha_mix =  0.700 |ddv_scf|^2 =  5.358E-16

      iter #  11 total cpu time : 30940.7 secs   av.it.:  17.6
      thresh= 2.315E-09 alpha_mix =  0.700 |ddv_scf|^2 =  1.204E-15

      iter #  12 total cpu time : 31010.9 secs   av.it.:  16.0
      thresh= 3.470E-09 alpha_mix =  0.700 |ddv_scf|^2 =  4.559E-18

     End of self-consistent calculation

     Convergence has been achieved 


     Representation #  29 mode #  31

     Self-consistent Calculation

      iter #   1 total cpu time : 31074.1 secs   av.it.:   6.0
      thresh= 1.000E-02 alpha_mix =  0.700 |ddv_scf|^2 =  3.816E-08

      iter #   2 total cpu time : 31151.5 secs   av.it.:  18.7
      thresh= 1.953E-05 alpha_mix =  0.700 |ddv_scf|^2 =  8.865E-07

      iter #   3 total cpu time : 31227.0 secs   av.it.:  15.7
      thresh= 9.416E-05 alpha_mix =  0.700 |ddv_scf|^2 =  1.842E-08

      iter #   4 total cpu time : 31301.2 secs   av.it.:  16.4
      thresh= 1.357E-05 alpha_mix =  0.700 |ddv_scf|^2 =  4.006E-11

      iter #   5 total cpu time : 31381.6 secs   av.it.:  17.7
      thresh= 6.329E-07 alpha_mix =  0.700 |ddv_scf|^2 =  1.560E-12

      iter #   6 total cpu time : 31460.8 secs   av.it.:  17.8
      thresh= 1.249E-07 alpha_mix =  0.700 |ddv_scf|^2 =  1.699E-13

      iter #   7 total cpu time : 31543.5 secs   av.it.:  17.7
      thresh= 4.122E-08 alpha_mix =  0.700 |ddv_scf|^2 =  1.853E-14

      iter #   8 total cpu time : 31623.2 secs   av.it.:  17.4
      thresh= 1.361E-08 alpha_mix =  0.700 |ddv_scf|^2 =  5.221E-15

      iter #   9 total cpu time : 31704.3 secs   av.it.:  16.8
      thresh= 7.226E-09 alpha_mix =  0.700 |ddv_scf|^2 =  1.147E-16

      iter #  10 total cpu time : 31785.0 secs   av.it.:  18.5
      thresh= 1.071E-09 alpha_mix =  0.700 |ddv_scf|^2 =  2.662E-16

      iter #  11 total cpu time : 31855.6 secs   av.it.:  16.0
      thresh= 1.632E-09 alpha_mix =  0.700 |ddv_scf|^2 =  2.935E-18

     End of self-consistent calculation

     Convergence has been achieved 


     Representation #  30 mode #  32

     Self-consistent Calculation

      iter #   1 total cpu time : 31920.1 secs   av.it.:   7.6
      thresh= 1.000E-02 alpha_mix =  0.700 |ddv_scf|^2 =  4.171E-08

      iter #   2 total cpu time : 32002.8 secs   av.it.:  18.8
      thresh= 2.042E-05 alpha_mix =  0.700 |ddv_scf|^2 =  7.285E-07

      iter #   3 total cpu time : 32076.5 secs   av.it.:  15.7
      thresh= 8.535E-05 alpha_mix =  0.700 |ddv_scf|^2 =  3.273E-08

      iter #   4 total cpu time : 32153.0 secs   av.it.:  16.6
      thresh= 1.809E-05 alpha_mix =  0.700 |ddv_scf|^2 =  2.178E-10

      iter #   5 total cpu time : 32228.5 secs   av.it.:  17.4
      thresh= 1.476E-06 alpha_mix =  0.700 |ddv_scf|^2 =  6.135E-12

      iter #   6 total cpu time : 32307.6 secs   av.it.:  17.7
      thresh= 2.477E-07 alpha_mix =  0.700 |ddv_scf|^2 =  2.808E-13

      iter #   7 total cpu time : 32384.8 secs   av.it.:  17.9
      thresh= 5.299E-08 alpha_mix =  0.700 |ddv_scf|^2 =  4.777E-14

      iter #   8 total cpu time : 32459.3 secs   av.it.:  17.9
      thresh= 2.186E-08 alpha_mix =  0.700 |ddv_scf|^2 =  1.557E-14

      iter #   9 total cpu time : 32536.5 secs   av.it.:  17.2
      thresh= 1.248E-08 alpha_mix =  0.700 |ddv_scf|^2 =  1.142E-15

      iter #  10 total cpu time : 32609.4 secs   av.it.:  17.4
      thresh= 3.380E-09 alpha_mix =  0.700 |ddv_scf|^2 =  7.756E-17

     End of self-consistent calculation

     Convergence has been achieved 


     Representation #  31 mode #  33

     Self-consistent Calculation

      iter #   1 total cpu time : 32669.1 secs   av.it.:   5.3
      thresh= 1.000E-02 alpha_mix =  0.700 |ddv_scf|^2 =  3.753E-09

      iter #   2 total cpu time : 32746.8 secs   av.it.:  18.7
      thresh= 6.126E-06 alpha_mix =  0.700 |ddv_scf|^2 =  1.747E-08

      iter #   3 total cpu time : 32822.0 secs   av.it.:  16.7
      thresh= 1.322E-05 alpha_mix =  0.700 |ddv_scf|^2 =  1.377E-08

      iter #   4 total cpu time : 32896.4 secs   av.it.:  15.7
      thresh= 1.174E-05 alpha_mix =  0.700 |ddv_scf|^2 =  1.280E-10

      iter #   5 total cpu time : 32973.6 secs   av.it.:  16.9
      thresh= 1.131E-06 alpha_mix =  0.700 |ddv_scf|^2 =  9.807E-13

      iter #   6 total cpu time : 33055.3 secs   av.it.:  17.6
      thresh= 9.903E-08 alpha_mix =  0.700 |ddv_scf|^2 =  3.451E-14

      iter #   7 total cpu time : 33133.5 secs   av.it.:  17.8
      thresh= 1.858E-08 alpha_mix =  0.700 |ddv_scf|^2 =  4.935E-15

      iter #   8 total cpu time : 33220.2 secs   av.it.:  17.8
      thresh= 7.025E-09 alpha_mix =  0.700 |ddv_scf|^2 =  1.385E-15

      iter #   9 total cpu time : 33294.2 secs   av.it.:  17.4
      thresh= 3.722E-09 alpha_mix =  0.700 |ddv_scf|^2 =  3.596E-17

     End of self-consistent calculation

     Convergence has been achieved 


     Representation #  32 mode #  34

     Self-consistent Calculation

      iter #   1 total cpu time : 33361.9 secs   av.it.:   6.0
      thresh= 1.000E-02 alpha_mix =  0.700 |ddv_scf|^2 =  1.788E-08

      iter #   2 total cpu time : 33437.8 secs   av.it.:  18.7
      thresh= 1.337E-05 alpha_mix =  0.700 |ddv_scf|^2 =  4.210E-07

      iter #   3 total cpu time : 33511.6 secs   av.it.:  15.5
      thresh= 6.489E-05 alpha_mix =  0.700 |ddv_scf|^2 =  6.406E-09

      iter #   4 total cpu time : 33588.7 secs   av.it.:  16.5
      thresh= 8.004E-06 alpha_mix =  0.700 |ddv_scf|^2 =  4.179E-10

      iter #   5 total cpu time : 33666.5 secs   av.it.:  16.7
      thresh= 2.044E-06 alpha_mix =  0.700 |ddv_scf|^2 =  2.490E-12

      iter #   6 total cpu time : 33742.2 secs   av.it.:  17.4
      thresh= 1.578E-07 alpha_mix =  0.700 |ddv_scf|^2 =  8.893E-14

      iter #   7 total cpu time : 33820.5 secs   av.it.:  17.7
      thresh= 2.982E-08 alpha_mix =  0.700 |ddv_scf|^2 =  8.675E-15

      iter #   8 total cpu time : 33897.3 secs   av.it.:  17.8
      thresh= 9.314E-09 alpha_mix =  0.700 |ddv_scf|^2 =  7.467E-15

      iter #   9 total cpu time : 33975.6 secs   av.it.:  16.6
      thresh= 8.641E-09 alpha_mix =  0.700 |ddv_scf|^2 =  2.833E-16

      iter #  10 total cpu time : 34058.2 secs   av.it.:  18.4
      thresh= 1.683E-09 alpha_mix =  0.700 |ddv_scf|^2 =  5.740E-16

      iter #  11 total cpu time : 34129.7 secs   av.it.:  16.6
      thresh= 2.396E-09 alpha_mix =  0.700 |ddv_scf|^2 =  8.333E-18

     End of self-consistent calculation

     Convergence has been achieved 


     Representation #  33 mode #  35

     Self-consistent Calculation

      iter #   1 total cpu time : 34187.0 secs   av.it.:   5.9
      thresh= 1.000E-02 alpha_mix =  0.700 |ddv_scf|^2 =  8.733E-09

      iter #   2 total cpu time : 34268.2 secs   av.it.:  18.7
      thresh= 9.345E-06 alpha_mix =  0.700 |ddv_scf|^2 =  1.144E-07

      iter #   3 total cpu time : 34344.1 secs   av.it.:  15.7
      thresh= 3.382E-05 alpha_mix =  0.700 |ddv_scf|^2 =  1.071E-08

      iter #   4 total cpu time : 34423.5 secs   av.it.:  16.0
      thresh= 1.035E-05 alpha_mix =  0.700 |ddv_scf|^2 =  2.217E-10

      iter #   5 total cpu time : 34502.1 secs   av.it.:  16.7
      thresh= 1.489E-06 alpha_mix =  0.700 |ddv_scf|^2 =  2.732E-12

      iter #   6 total cpu time : 34573.7 secs   av.it.:  17.0
      thresh= 1.653E-07 alpha_mix =  0.700 |ddv_scf|^2 =  7.007E-14

      iter #   7 total cpu time : 34651.1 secs   av.it.:  17.6
      thresh= 2.647E-08 alpha_mix =  0.700 |ddv_scf|^2 =  5.736E-15

      iter #   8 total cpu time : 34731.1 secs   av.it.:  17.6
      thresh= 7.574E-09 alpha_mix =  0.700 |ddv_scf|^2 =  1.032E-15

      iter #   9 total cpu time : 34809.1 secs   av.it.:  17.8
      thresh= 3.213E-09 alpha_mix =  0.700 |ddv_scf|^2 =  3.740E-16

      iter #  10 total cpu time : 34886.1 secs   av.it.:  16.9
      thresh= 1.934E-09 alpha_mix =  0.700 |ddv_scf|^2 =  6.117E-17

     End of self-consistent calculation

     Convergence has been achieved 


     Representation #  34 mode #  36

     Self-consistent Calculation

      iter #   1 total cpu time : 34948.2 secs   av.it.:   6.0
      thresh= 1.000E-02 alpha_mix =  0.700 |ddv_scf|^2 =  7.206E-08

      iter #   2 total cpu time : 35027.6 secs   av.it.:  18.7
      thresh= 2.684E-05 alpha_mix =  0.700 |ddv_scf|^2 =  1.886E-06

      iter #   3 total cpu time : 35104.7 secs   av.it.:  15.5
      thresh= 1.373E-04 alpha_mix =  0.700 |ddv_scf|^2 =  3.163E-08

      iter #   4 total cpu time : 35179.2 secs   av.it.:  16.0
      thresh= 1.779E-05 alpha_mix =  0.700 |ddv_scf|^2 =  7.639E-11

      iter #   5 total cpu time : 35258.8 secs   av.it.:  17.7
      thresh= 8.740E-07 alpha_mix =  0.700 |ddv_scf|^2 =  4.467E-12

      iter #   6 total cpu time : 35339.4 secs   av.it.:  17.6
      thresh= 2.114E-07 alpha_mix =  0.700 |ddv_scf|^2 =  1.365E-13

      iter #   7 total cpu time : 35416.4 secs   av.it.:  17.8
      thresh= 3.694E-08 alpha_mix =  0.700 |ddv_scf|^2 =  8.086E-15

      iter #   8 total cpu time : 35490.5 secs   av.it.:  18.4
      thresh= 8.992E-09 alpha_mix =  0.700 |ddv_scf|^2 =  7.199E-15

      iter #   9 total cpu time : 35566.8 secs   av.it.:  17.7
      thresh= 8.485E-09 alpha_mix =  0.700 |ddv_scf|^2 =  7.888E-15

      iter #  10 total cpu time : 35638.9 secs   av.it.:  15.7
      thresh= 8.881E-09 alpha_mix =  0.700 |ddv_scf|^2 =  1.504E-16

      iter #  11 total cpu time : 35720.8 secs   av.it.:  18.0
      thresh= 1.226E-09 alpha_mix =  0.700 |ddv_scf|^2 =  2.487E-16

      iter #  12 total cpu time : 35793.3 secs   av.it.:  16.2
      thresh= 1.577E-09 alpha_mix =  0.700 |ddv_scf|^2 =  7.930E-18

     End of self-consistent calculation

     Convergence has been achieved 


     Representation #  35 mode #  37

     Self-consistent Calculation

      iter #   1 total cpu time : 35855.8 secs   av.it.:   6.0
      thresh= 1.000E-02 alpha_mix =  0.700 |ddv_scf|^2 =  5.785E-08

      iter #   2 total cpu time : 35935.8 secs   av.it.:  18.6
      thresh= 2.405E-05 alpha_mix =  0.700 |ddv_scf|^2 =  1.366E-06

      iter #   3 total cpu time : 36012.5 secs   av.it.:  15.5
      thresh= 1.169E-04 alpha_mix =  0.700 |ddv_scf|^2 =  3.623E-08

      iter #   4 total cpu time : 36092.3 secs   av.it.:  16.1
      thresh= 1.903E-05 alpha_mix =  0.700 |ddv_scf|^2 =  9.504E-11

      iter #   5 total cpu time : 36170.2 secs   av.it.:  17.7
      thresh= 9.749E-07 alpha_mix =  0.700 |ddv_scf|^2 =  3.803E-12

      iter #   6 total cpu time : 36244.1 secs   av.it.:  17.7
      thresh= 1.950E-07 alpha_mix =  0.700 |ddv_scf|^2 =  2.855E-13

      iter #   7 total cpu time : 36320.1 secs   av.it.:  17.6
      thresh= 5.343E-08 alpha_mix =  0.700 |ddv_scf|^2 =  3.576E-14

      iter #   8 total cpu time : 36393.0 secs   av.it.:  17.1
      thresh= 1.891E-08 alpha_mix =  0.700 |ddv_scf|^2 =  1.306E-14

      iter #   9 total cpu time : 36468.8 secs   av.it.:  16.6
      thresh= 1.143E-08 alpha_mix =  0.700 |ddv_scf|^2 =  3.715E-16

      iter #  10 total cpu time : 36546.5 secs   av.it.:  17.7
      thresh= 1.927E-09 alpha_mix =  0.700 |ddv_scf|^2 =  4.184E-16

      iter #  11 total cpu time : 36612.4 secs   av.it.:  16.5
      thresh= 2.046E-09 alpha_mix =  0.700 |ddv_scf|^2 =  1.378E-17

     End of self-consistent calculation

     Convergence has been achieved 


     Representation #  36 mode #  38

     Self-consistent Calculation

      iter #   1 total cpu time : 36670.1 secs   av.it.:   7.7
      thresh= 1.000E-02 alpha_mix =  0.700 |ddv_scf|^2 =  3.256E-08

      iter #   2 total cpu time : 36740.6 secs   av.it.:  18.7
      thresh= 1.804E-05 alpha_mix =  0.700 |ddv_scf|^2 =  2.128E-07

      iter #   3 total cpu time : 36813.6 secs   av.it.:  16.3
      thresh= 4.613E-05 alpha_mix =  0.700 |ddv_scf|^2 =  1.131E-07

      iter #   4 total cpu time : 36885.7 secs   av.it.:  15.8
      thresh= 3.363E-05 alpha_mix =  0.700 |ddv_scf|^2 =  1.723E-10

      iter #   5 total cpu time : 36963.0 secs   av.it.:  17.8
      thresh= 1.313E-06 alpha_mix =  0.700 |ddv_scf|^2 =  2.891E-11

      iter #   6 total cpu time : 37032.1 secs   av.it.:  16.9
      thresh= 5.377E-07 alpha_mix =  0.700 |ddv_scf|^2 =  8.979E-13

      iter #   7 total cpu time : 37102.1 secs   av.it.:  17.2
      thresh= 9.476E-08 alpha_mix =  0.700 |ddv_scf|^2 =  5.241E-14

      iter #   8 total cpu time : 37173.9 secs   av.it.:  17.8
      thresh= 2.289E-08 alpha_mix =  0.700 |ddv_scf|^2 =  5.511E-15

      iter #   9 total cpu time : 37251.3 secs   av.it.:  17.9
      thresh= 7.424E-09 alpha_mix =  0.700 |ddv_scf|^2 =  2.607E-16

      iter #  10 total cpu time : 37324.3 secs   av.it.:  18.4
      thresh= 1.615E-09 alpha_mix =  0.700 |ddv_scf|^2 =  1.721E-16

      iter #  11 total cpu time : 37394.3 secs   av.it.:  17.0
      thresh= 1.312E-09 alpha_mix =  0.700 |ddv_scf|^2 =  6.463E-17

     End of self-consistent calculation

     Convergence has been achieved 


     Representation #  37 mode #  39

     Self-consistent Calculation

      iter #   1 total cpu time : 37442.0 secs   av.it.:   6.0
      thresh= 1.000E-02 alpha_mix =  0.700 |ddv_scf|^2 =  1.939E-08

      iter #   2 total cpu time : 37510.8 secs   av.it.:  18.9
      thresh= 1.393E-05 alpha_mix =  0.700 |ddv_scf|^2 =  4.370E-07

      iter #   3 total cpu time : 37578.7 secs   av.it.:  15.5
      thresh= 6.611E-05 alpha_mix =  0.700 |ddv_scf|^2 =  8.702E-09

      iter #   4 total cpu time : 37656.8 secs   av.it.:  16.7
      thresh= 9.328E-06 alpha_mix =  0.700 |ddv_scf|^2 =  1.902E-10

      iter #   5 total cpu time : 37729.8 secs   av.it.:  17.0
      thresh= 1.379E-06 alpha_mix =  0.700 |ddv_scf|^2 =  2.933E-12

      iter #   6 total cpu time : 37799.5 secs   av.it.:  17.5
      thresh= 1.713E-07 alpha_mix =  0.700 |ddv_scf|^2 =  1.137E-13

      iter #   7 total cpu time : 37869.5 secs   av.it.:  17.6
      thresh= 3.371E-08 alpha_mix =  0.700 |ddv_scf|^2 =  2.638E-14

      iter #   8 total cpu time : 37941.2 secs   av.it.:  17.6
      thresh= 1.624E-08 alpha_mix =  0.700 |ddv_scf|^2 =  1.718E-14

      iter #   9 total cpu time : 38018.1 secs   av.it.:  16.1
      thresh= 1.311E-08 alpha_mix =  0.700 |ddv_scf|^2 =  7.358E-16

      iter #  10 total cpu time : 38090.6 secs   av.it.:  17.8
      thresh= 2.713E-09 alpha_mix =  0.700 |ddv_scf|^2 =  6.143E-16

      iter #  11 total cpu time : 38154.2 secs   av.it.:  16.9
      thresh= 2.478E-09 alpha_mix =  0.700 |ddv_scf|^2 =  3.399E-17

     End of self-consistent calculation

     Convergence has been achieved 


     Representation #  38 mode #  40

     Self-consistent Calculation

      iter #   1 total cpu time : 38204.7 secs   av.it.:   6.0
      thresh= 1.000E-02 alpha_mix =  0.700 |ddv_scf|^2 =  5.767E-08

      iter #   2 total cpu time : 38272.3 secs   av.it.:  18.6
      thresh= 2.401E-05 alpha_mix =  0.700 |ddv_scf|^2 =  1.366E-06

      iter #   3 total cpu time : 38341.4 secs   av.it.:  15.5
      thresh= 1.169E-04 alpha_mix =  0.700 |ddv_scf|^2 =  3.663E-08

      iter #   4 total cpu time : 38411.6 secs   av.it.:  16.0
      thresh= 1.914E-05 alpha_mix =  0.700 |ddv_scf|^2 =  9.428E-11

      iter #   5 total cpu time : 38484.7 secs   av.it.:  17.7
      thresh= 9.710E-07 alpha_mix =  0.700 |ddv_scf|^2 =  4.802E-12

      iter #   6 total cpu time : 38550.8 secs   av.it.:  17.7
      thresh= 2.191E-07 alpha_mix =  0.700 |ddv_scf|^2 =  2.760E-13

      iter #   7 total cpu time : 38621.1 secs   av.it.:  17.6
      thresh= 5.254E-08 alpha_mix =  0.700 |ddv_scf|^2 =  2.921E-14

      iter #   8 total cpu time : 38694.7 secs   av.it.:  17.0
      thresh= 1.709E-08 alpha_mix =  0.700 |ddv_scf|^2 =  6.564E-15

      iter #   9 total cpu time : 38768.0 secs   av.it.:  16.7
      thresh= 8.102E-09 alpha_mix =  0.700 |ddv_scf|^2 =  3.277E-16

      iter #  10 total cpu time : 38837.8 secs   av.it.:  17.7
      thresh= 1.810E-09 alpha_mix =  0.700 |ddv_scf|^2 =  2.361E-16

      iter #  11 total cpu time : 38903.9 secs   av.it.:  16.5
      thresh= 1.537E-09 alpha_mix =  0.700 |ddv_scf|^2 =  1.631E-17

     End of self-consistent calculation

     Convergence has been achieved 


     Representation #  39 mode #  41

     Self-consistent Calculation

      iter #   1 total cpu time : 38960.2 secs   av.it.:   8.0
      thresh= 1.000E-02 alpha_mix =  0.700 |ddv_scf|^2 =  1.704E-07

      iter #   2 total cpu time : 39032.8 secs   av.it.:  18.7
      thresh= 4.128E-05 alpha_mix =  0.700 |ddv_scf|^2 =  3.564E-06

      iter #   3 total cpu time : 39103.5 secs   av.it.:  15.6
      thresh= 1.888E-04 alpha_mix =  0.700 |ddv_scf|^2 =  1.465E-07

      iter #   4 total cpu time : 39176.9 secs   av.it.:  16.5
      thresh= 3.828E-05 alpha_mix =  0.700 |ddv_scf|^2 =  1.545E-09

      iter #   5 total cpu time : 39245.5 secs   av.it.:  16.9
      thresh= 3.930E-06 alpha_mix =  0.700 |ddv_scf|^2 =  4.292E-11

      iter #   6 total cpu time : 39317.0 secs   av.it.:  17.2
      thresh= 6.551E-07 alpha_mix =  0.700 |ddv_scf|^2 =  8.143E-13

      iter #   7 total cpu time : 39385.8 secs   av.it.:  17.3
      thresh= 9.024E-08 alpha_mix =  0.700 |ddv_scf|^2 =  9.632E-14

      iter #   8 total cpu time : 39458.1 secs   av.it.:  17.7
      thresh= 3.104E-08 alpha_mix =  0.700 |ddv_scf|^2 =  2.552E-14

      iter #   9 total cpu time : 39534.3 secs   av.it.:  17.8
      thresh= 1.598E-08 alpha_mix =  0.700 |ddv_scf|^2 =  2.717E-15

      iter #  10 total cpu time : 39605.5 secs   av.it.:  17.8
      thresh= 5.212E-09 alpha_mix =  0.700 |ddv_scf|^2 =  8.136E-17

     End of self-consistent calculation

     Convergence has been achieved 


     Representation #  40 mode #  42

     Self-consistent Calculation

      iter #   1 total cpu time : 39657.9 secs   av.it.:   5.4
      thresh= 1.000E-02 alpha_mix =  0.700 |ddv_scf|^2 =  6.655E-09

      iter #   2 total cpu time : 39729.7 secs   av.it.:  18.2
      thresh= 8.158E-06 alpha_mix =  0.700 |ddv_scf|^2 =  2.454E-08

      iter #   3 total cpu time : 39802.2 secs   av.it.:  16.7
      thresh= 1.567E-05 alpha_mix =  0.700 |ddv_scf|^2 =  2.982E-08

      iter #   4 total cpu time : 39872.2 secs   av.it.:  15.7
      thresh= 1.727E-05 alpha_mix =  0.700 |ddv_scf|^2 =  1.187E-10

      iter #   5 total cpu time : 39945.1 secs   av.it.:  17.0
      thresh= 1.090E-06 alpha_mix =  0.700 |ddv_scf|^2 =  1.572E-12

      iter #   6 total cpu time : 40013.1 secs   av.it.:  17.8
      thresh= 1.254E-07 alpha_mix =  0.700 |ddv_scf|^2 =  1.279E-13

      iter #   7 total cpu time : 40079.7 secs   av.it.:  17.6
      thresh= 3.577E-08 alpha_mix =  0.700 |ddv_scf|^2 =  1.705E-14

      iter #   8 total cpu time : 40148.3 secs   av.it.:  17.9
      thresh= 1.306E-08 alpha_mix =  0.700 |ddv_scf|^2 =  2.387E-14

      iter #   9 total cpu time : 40217.9 secs   av.it.:  16.5
      thresh= 1.545E-08 alpha_mix =  0.700 |ddv_scf|^2 =  1.926E-16

      iter #  10 total cpu time : 40284.4 secs   av.it.:  17.1
      thresh= 1.388E-09 alpha_mix =  0.700 |ddv_scf|^2 =  1.895E-17

     End of self-consistent calculation

     Convergence has been achieved 


     Representation #  41 mode #  43

     Self-consistent Calculation

      iter #   1 total cpu time : 40333.5 secs   av.it.:   6.0
      thresh= 1.000E-02 alpha_mix =  0.700 |ddv_scf|^2 =  5.819E-08

      iter #   2 total cpu time : 40402.3 secs   av.it.:  18.6
      thresh= 2.412E-05 alpha_mix =  0.700 |ddv_scf|^2 =  1.374E-06

      iter #   3 total cpu time : 40465.5 secs   av.it.:  15.6
      thresh= 1.172E-04 alpha_mix =  0.700 |ddv_scf|^2 =  3.661E-08

      iter #   4 total cpu time : 40534.9 secs   av.it.:  16.0
      thresh= 1.913E-05 alpha_mix =  0.700 |ddv_scf|^2 =  7.025E-11

      iter #   5 total cpu time : 40605.8 secs   av.it.:  17.7
      thresh= 8.382E-07 alpha_mix =  0.700 |ddv_scf|^2 =  3.782E-12

      iter #   6 total cpu time : 40682.0 secs   av.it.:  17.7
      thresh= 1.945E-07 alpha_mix =  0.700 |ddv_scf|^2 =  1.806E-13

      iter #   7 total cpu time : 40754.0 secs   av.it.:  17.8
      thresh= 4.249E-08 alpha_mix =  0.700 |ddv_scf|^2 =  1.668E-14

      iter #   8 total cpu time : 40825.8 secs   av.it.:  18.0
      thresh= 1.292E-08 alpha_mix =  0.700 |ddv_scf|^2 =  1.182E-14

      iter #   9 total cpu time : 40894.6 secs   av.it.:  17.4
      thresh= 1.087E-08 alpha_mix =  0.700 |ddv_scf|^2 =  9.767E-15

      iter #  10 total cpu time : 40961.4 secs   av.it.:  15.9
      thresh= 9.883E-09 alpha_mix =  0.700 |ddv_scf|^2 =  2.202E-16

      iter #  11 total cpu time : 41031.6 secs   av.it.:  17.7
      thresh= 1.484E-09 alpha_mix =  0.700 |ddv_scf|^2 =  5.768E-17

     End of self-consistent calculation

     Convergence has been achieved 


     Representation #  42 mode #  44

     Self-consistent Calculation

      iter #   1 total cpu time : 41085.2 secs   av.it.:   7.6
      thresh= 1.000E-02 alpha_mix =  0.700 |ddv_scf|^2 =  4.329E-08

      iter #   2 total cpu time : 41154.5 secs   av.it.:  18.6
      thresh= 2.081E-05 alpha_mix =  0.700 |ddv_scf|^2 =  1.843E-07

      iter #   3 total cpu time : 41225.3 secs   av.it.:  16.7
      thresh= 4.294E-05 alpha_mix =  0.700 |ddv_scf|^2 =  1.942E-07

      iter #   4 total cpu time : 41298.2 secs   av.it.:  15.6
      thresh= 4.407E-05 alpha_mix =  0.700 |ddv_scf|^2 =  2.012E-10

      iter #   5 total cpu time : 41375.7 secs   av.it.:  17.9
[...]
      thresh= 9.016E-09 alpha_mix =  0.700 |ddv_scf|^2 =  1.016E-15

      iter #  12 total cpu time : 60590.2 secs   av.it.:  18.0
      thresh= 3.188E-09 alpha_mix =  0.700 |ddv_scf|^2 =  5.895E-15

      iter #  13 total cpu time : 60672.1 secs   av.it.:  14.8
      thresh= 7.678E-09 alpha_mix =  0.700 |ddv_scf|^2 =  2.366E-16

      iter #  14 total cpu time : 60767.0 secs   av.it.:  17.8
      thresh= 1.538E-09 alpha_mix =  0.700 |ddv_scf|^2 =  2.737E-16

      iter #  15 total cpu time : 60860.6 secs   av.it.:  16.0
      thresh= 1.655E-09 alpha_mix =  0.700 |ddv_scf|^2 =  1.100E-16

      iter #  16 total cpu time : 60948.0 secs   av.it.:  15.9
      thresh= 1.049E-09 alpha_mix =  0.700 |ddv_scf|^2 =  9.501E-18

     End of self-consistent calculation

     Convergence has been achieved 


     Representation #  62 mode #  64

     Self-consistent Calculation

      iter #   1 total cpu time : 61033.5 secs   av.it.:   6.0
      thresh= 1.000E-02 alpha_mix =  0.700 |ddv_scf|^2 =  2.022E-07

      iter #   2 total cpu time : 61124.8 secs   av.it.:  17.9
      thresh= 4.496E-05 alpha_mix =  0.700 |ddv_scf|^2 =  1.121E-05

      iter #   3 total cpu time : 61210.7 secs   av.it.:  14.0
      thresh= 3.347E-04 alpha_mix =  0.700 |ddv_scf|^2 =  1.183E-07

      iter #   4 total cpu time : 61304.3 secs   av.it.:  15.4
      thresh= 3.439E-05 alpha_mix =  0.700 |ddv_scf|^2 =  6.034E-09

      iter #   5 total cpu time : 61398.2 secs   av.it.:  15.9
      thresh= 7.768E-06 alpha_mix =  0.700 |ddv_scf|^2 =  1.692E-09

      iter #   6 total cpu time : 61490.0 secs   av.it.:  15.8
      thresh= 4.114E-06 alpha_mix =  0.700 |ddv_scf|^2 =  6.448E-11

      iter #   7 total cpu time : 61575.3 secs   av.it.:  16.1
      thresh= 8.030E-07 alpha_mix =  0.700 |ddv_scf|^2 =  1.473E-12

      iter #   8 total cpu time : 61662.0 secs   av.it.:  17.1
      thresh= 1.214E-07 alpha_mix =  0.700 |ddv_scf|^2 =  1.046E-13

      iter #   9 total cpu time : 61760.5 secs   av.it.:  17.6
      thresh= 3.235E-08 alpha_mix =  0.700 |ddv_scf|^2 =  4.689E-14

      iter #  10 total cpu time : 61854.2 secs   av.it.:  17.0
      thresh= 2.165E-08 alpha_mix =  0.700 |ddv_scf|^2 =  1.064E-14

      iter #  11 total cpu time : 61940.8 secs   av.it.:  16.0
      thresh= 1.032E-08 alpha_mix =  0.700 |ddv_scf|^2 =  5.305E-15

      iter #  12 total cpu time : 62037.1 secs   av.it.:  15.9
      thresh= 7.283E-09 alpha_mix =  0.700 |ddv_scf|^2 =  2.441E-15

      iter #  13 total cpu time : 62146.9 secs   av.it.:  15.1
      thresh= 4.941E-09 alpha_mix =  0.700 |ddv_scf|^2 =  3.796E-16

      iter #  14 total cpu time : 62244.1 secs   av.it.:  17.2
      thresh= 1.948E-09 alpha_mix =  0.700 |ddv_scf|^2 =  2.000E-16

      iter #  15 total cpu time : 62328.9 secs   av.it.:  16.0
      thresh= 1.414E-09 alpha_mix =  0.700 |ddv_scf|^2 =  3.422E-17

     End of self-consistent calculation

     Convergence has been achieved 


     Representation #  63 mode #  65

     Self-consistent Calculation

      iter #   1 total cpu time : 62420.7 secs   av.it.:   6.0
      thresh= 1.000E-02 alpha_mix =  0.700 |ddv_scf|^2 =  7.200E-08

      iter #   2 total cpu time : 62515.0 secs   av.it.:  17.8
      thresh= 2.683E-05 alpha_mix =  0.700 |ddv_scf|^2 =  3.685E-07

      iter #   3 total cpu time : 62607.1 secs   av.it.:  15.8
      thresh= 6.070E-05 alpha_mix =  0.700 |ddv_scf|^2 =  5.421E-09

      iter #   4 total cpu time : 62698.3 secs   av.it.:  16.8
      thresh= 7.362E-06 alpha_mix =  0.700 |ddv_scf|^2 =  5.255E-10

      iter #   5 total cpu time : 62792.9 secs   av.it.:  16.9
      thresh= 2.292E-06 alpha_mix =  0.700 |ddv_scf|^2 =  3.911E-09

      iter #   6 total cpu time : 62875.5 secs   av.it.:  14.0
      thresh= 6.254E-06 alpha_mix =  0.700 |ddv_scf|^2 =  7.786E-12

      iter #   7 total cpu time : 62972.6 secs   av.it.:  17.6
      thresh= 2.790E-07 alpha_mix =  0.700 |ddv_scf|^2 =  4.367E-12

      iter #   8 total cpu time : 63062.9 secs   av.it.:  17.0
      thresh= 2.090E-07 alpha_mix =  0.700 |ddv_scf|^2 =  4.671E-13

      iter #   9 total cpu time : 63150.6 secs   av.it.:  16.7
      thresh= 6.834E-08 alpha_mix =  0.700 |ddv_scf|^2 =  9.728E-14

      iter #  10 total cpu time : 63240.1 secs   av.it.:  17.0
      thresh= 3.119E-08 alpha_mix =  0.700 |ddv_scf|^2 =  1.106E-13

      iter #  11 total cpu time : 63329.1 secs   av.it.:  15.0
      thresh= 3.325E-08 alpha_mix =  0.700 |ddv_scf|^2 =  1.144E-15

      iter #  12 total cpu time : 63421.7 secs   av.it.:  17.8
      thresh= 3.382E-09 alpha_mix =  0.700 |ddv_scf|^2 =  2.237E-15

      iter #  13 total cpu time : 63519.0 secs   av.it.:  16.4
      thresh= 4.730E-09 alpha_mix =  0.700 |ddv_scf|^2 =  6.689E-16

      iter #  14 total cpu time : 63602.7 secs   av.it.:  15.3
      thresh= 2.586E-09 alpha_mix =  0.700 |ddv_scf|^2 =  7.904E-17

     End of self-consistent calculation

     Convergence has been achieved 


     Representation #  64 mode #  66

     Self-consistent Calculation

      iter #   1 total cpu time : 63689.4 secs   av.it.:   6.8
      thresh= 1.000E-02 alpha_mix =  0.700 |ddv_scf|^2 =  2.442E-07

      iter #   2 total cpu time : 63778.5 secs   av.it.:  17.7
      thresh= 4.942E-05 alpha_mix =  0.700 |ddv_scf|^2 =  3.295E-06

      iter #   3 total cpu time : 63870.5 secs   av.it.:  15.0
      thresh= 1.815E-04 alpha_mix =  0.700 |ddv_scf|^2 =  1.516E-06

      iter #   4 total cpu time : 63959.0 secs   av.it.:  14.2
      thresh= 1.231E-04 alpha_mix =  0.700 |ddv_scf|^2 =  4.112E-09

      iter #   5 total cpu time : 64056.3 secs   av.it.:  17.0
      thresh= 6.412E-06 alpha_mix =  0.700 |ddv_scf|^2 =  1.100E-09

      iter #   6 total cpu time : 64150.2 secs   av.it.:  16.0
      thresh= 3.316E-06 alpha_mix =  0.700 |ddv_scf|^2 =  5.605E-11

      iter #   7 total cpu time : 64235.7 secs   av.it.:  16.7
      thresh= 7.486E-07 alpha_mix =  0.700 |ddv_scf|^2 =  2.263E-11

      iter #   8 total cpu time : 64324.3 secs   av.it.:  16.0
      thresh= 4.757E-07 alpha_mix =  0.700 |ddv_scf|^2 =  6.920E-12

      iter #   9 total cpu time : 64406.9 secs   av.it.:  15.0
      thresh= 2.631E-07 alpha_mix =  0.700 |ddv_scf|^2 =  8.887E-14

      iter #  10 total cpu time : 64502.2 secs   av.it.:  17.7
      thresh= 2.981E-08 alpha_mix =  0.700 |ddv_scf|^2 =  1.106E-13

      iter #  11 total cpu time : 64590.4 secs   av.it.:  16.0
      thresh= 3.326E-08 alpha_mix =  0.700 |ddv_scf|^2 =  3.998E-15

      iter #  12 total cpu time : 64678.5 secs   av.it.:  16.1
      thresh= 6.323E-09 alpha_mix =  0.700 |ddv_scf|^2 =  7.209E-16

      iter #  13 total cpu time : 64772.4 secs   av.it.:  17.0
      thresh= 2.685E-09 alpha_mix =  0.700 |ddv_scf|^2 =  2.356E-16

      iter #  14 total cpu time : 64858.6 secs   av.it.:  17.0
      thresh= 1.535E-09 alpha_mix =  0.700 |ddv_scf|^2 =  2.218E-17

     End of self-consistent calculation

     Convergence has been achieved 

     Number of q in the star =    3
     List of q in the star:
          1   0.288675135  -0.500000000  -0.182844846
          2   0.577350269   0.000000000   0.182844846
          3  -0.288675135  -0.500000000   0.182844846

     Diagonalizing the dynamical matrix

     q = (    0.288675135  -0.500000000  -0.182844846 ) 

 **************************************************************************
     freq (    1) =       1.879084 [THz] =      62.679483 [cm-1]
     freq (    2) =       2.044807 [THz] =      68.207434 [cm-1]
     freq (    3) =       2.066455 [THz] =      68.929509 [cm-1]
     freq (    4) =       2.072270 [THz] =      69.123472 [cm-1]
     freq (    5) =       2.453843 [THz] =      81.851383 [cm-1]
     freq (    6) =       2.487758 [THz] =      82.982688 [cm-1]
     freq (    7) =       2.960655 [THz] =      98.756824 [cm-1]
     freq (    8) =       2.962087 [THz] =      98.804585 [cm-1]
     freq (    9) =       3.113623 [THz] =     103.859285 [cm-1]
     freq (   10) =       3.223582 [THz] =     107.527132 [cm-1]
     freq (   11) =       3.361442 [THz] =     112.125622 [cm-1]
     freq (   12) =       3.386948 [THz] =     112.976418 [cm-1]
     freq (   13) =       4.028878 [THz] =     134.388900 [cm-1]
     freq (   14) =       4.195142 [THz] =     139.934886 [cm-1]
     freq (   15) =       4.196050 [THz] =     139.965148 [cm-1]
     freq (   16) =       4.240860 [THz] =     141.459865 [cm-1]
     freq (   17) =       4.607348 [THz] =     153.684603 [cm-1]
     freq (   18) =       4.785384 [THz] =     159.623229 [cm-1]
     freq (   19) =       4.817306 [THz] =     160.688046 [cm-1]
     freq (   20) =       4.902154 [THz] =     163.518272 [cm-1]
     freq (   21) =       5.111849 [THz] =     170.512936 [cm-1]
     freq (   22) =       5.140833 [THz] =     171.479747 [cm-1]
     freq (   23) =       5.226835 [THz] =     174.348436 [cm-1]
     freq (   24) =       5.333107 [THz] =     177.893293 [cm-1]
     freq (   25) =       5.350377 [THz] =     178.469367 [cm-1]
     freq (   26) =       5.378818 [THz] =     179.418047 [cm-1]
     freq (   27) =       5.678605 [THz] =     189.417888 [cm-1]
     freq (   28) =       5.713299 [THz] =     190.575146 [cm-1]
     freq (   29) =       6.413451 [THz] =     213.929687 [cm-1]
     freq (   30) =       6.449285 [THz] =     215.124978 [cm-1]
     freq (   31) =       6.449292 [THz] =     215.125230 [cm-1]
     freq (   32) =       6.452440 [THz] =     215.230218 [cm-1]
     freq (   33) =       6.771603 [THz] =     225.876359 [cm-1]
     freq (   34) =       6.809014 [THz] =     227.124253 [cm-1]
     freq (   35) =       6.850188 [THz] =     228.497671 [cm-1]
     freq (   36) =       6.928686 [THz] =     231.116085 [cm-1]
     freq (   37) =       6.956995 [THz] =     232.060390 [cm-1]
     freq (   38) =       7.014143 [THz] =     233.966625 [cm-1]
     freq (   39) =       7.078599 [THz] =     236.116635 [cm-1]
     freq (   40) =       7.117539 [THz] =     237.415554 [cm-1]
     freq (   41) =       7.528102 [THz] =     251.110458 [cm-1]
     freq (   42) =       7.590223 [THz] =     253.182577 [cm-1]
     freq (   43) =       7.635555 [THz] =     254.694688 [cm-1]
     freq (   44) =       7.663400 [THz] =     255.623517 [cm-1]
     freq (   45) =       7.814578 [THz] =     260.666268 [cm-1]
     freq (   46) =       7.856326 [THz] =     262.058836 [cm-1]
     freq (   47) =       8.136156 [THz] =     271.392965 [cm-1]
     freq (   48) =       8.151448 [THz] =     271.903034 [cm-1]
     freq (   49) =       8.520371 [THz] =     284.208971 [cm-1]
     freq (   50) =       8.543102 [THz] =     284.967215 [cm-1]
     freq (   51) =       8.581555 [THz] =     286.249849 [cm-1]
     freq (   52) =       8.606872 [THz] =     287.094359 [cm-1]
     freq (   53) =       8.891679 [THz] =     296.594474 [cm-1]
     freq (   54) =       8.942417 [THz] =     298.286937 [cm-1]
     freq (   55) =       9.156622 [THz] =     305.432049 [cm-1]
     freq (   56) =       9.195080 [THz] =     306.714853 [cm-1]
     freq (   57) =       9.543122 [THz] =     318.324291 [cm-1]
     freq (   58) =       9.595222 [THz] =     320.062166 [cm-1]
     freq (   59) =      10.095807 [THz] =     336.759885 [cm-1]
     freq (   60) =      10.259883 [THz] =     342.232872 [cm-1]
     freq (   61) =      10.357019 [THz] =     345.472979 [cm-1]
     freq (   62) =      10.464218 [THz] =     349.048747 [cm-1]
     freq (   63) =      10.845718 [THz] =     361.774198 [cm-1]
     freq (   64) =      10.972078 [THz] =     365.989127 [cm-1]
     freq (   65) =      11.403970 [THz] =     380.395495 [cm-1]
     freq (   66) =      11.464876 [THz] =     382.427101 [cm-1]
 **************************************************************************

     Mode symmetry, C_2h (2/m)  point group:

     freq (   1-   1) =         62.7  [cm-1]   --> B_u                
     freq (   2-   2) =         68.2  [cm-1]   --> A_g                
     freq (   3-   3) =         68.9  [cm-1]   --> B_g                
     freq (   4-   4) =         69.1  [cm-1]   --> A_u                
     freq (   5-   5) =         81.9  [cm-1]   --> B_u                
     freq (   6-   6) =         83.0  [cm-1]   --> A_g                
     freq (   7-   7) =         98.8  [cm-1]   --> B_g                
     freq (   8-   8) =         98.8  [cm-1]   --> A_u                
     freq (   9-   9) =        103.9  [cm-1]   --> A_u                
     freq (  10-  10) =        107.5  [cm-1]   --> B_g                
     freq (  11-  11) =        112.1  [cm-1]   --> A_g                
     freq (  12-  12) =        113.0  [cm-1]   --> B_u                
     freq (  13-  13) =        134.4  [cm-1]   --> B_g                
     freq (  14-  14) =        139.9  [cm-1]   --> A_u                
     freq (  15-  15) =        140.0  [cm-1]   --> B_u                
     freq (  16-  16) =        141.5  [cm-1]   --> A_g                
     freq (  17-  17) =        153.7  [cm-1]   --> B_g                
     freq (  18-  18) =        159.6  [cm-1]   --> A_u                
     freq (  19-  19) =        160.7  [cm-1]   --> A_g                
     freq (  20-  20) =        163.5  [cm-1]   --> B_u                
     freq (  21-  21) =        170.5  [cm-1]   --> A_g                
     freq (  22-  22) =        171.5  [cm-1]   --> B_u                
     freq (  23-  23) =        174.3  [cm-1]   --> B_u                
     freq (  24-  24) =        177.9  [cm-1]   --> B_g                
     freq (  25-  25) =        178.5  [cm-1]   --> A_u                
     freq (  26-  26) =        179.4  [cm-1]   --> A_g                
     freq (  27-  27) =        189.4  [cm-1]   --> A_g                
     freq (  28-  28) =        190.6  [cm-1]   --> B_u                
     freq (  29-  29) =        213.9  [cm-1]   --> B_u                
     freq (  30-  30) =        215.1  [cm-1]   --> B_g                
     freq (  31-  31) =        215.1  [cm-1]   --> A_u                
     freq (  32-  32) =        215.2  [cm-1]   --> A_g                
     freq (  33-  33) =        225.9  [cm-1]   --> A_g                
     freq (  34-  34) =        227.1  [cm-1]   --> B_u                
     freq (  35-  35) =        228.5  [cm-1]   --> B_g                
     freq (  36-  36) =        231.1  [cm-1]   --> A_u                
     freq (  37-  37) =        232.1  [cm-1]   --> B_u                
     freq (  38-  38) =        234.0  [cm-1]   --> A_g                
     freq (  39-  39) =        236.1  [cm-1]   --> B_g                
     freq (  40-  40) =        237.4  [cm-1]   --> A_u                
     freq (  41-  41) =        251.1  [cm-1]   --> B_u                
     freq (  42-  42) =        253.2  [cm-1]   --> A_g                
     freq (  43-  43) =        254.7  [cm-1]   --> B_g                
     freq (  44-  44) =        255.6  [cm-1]   --> A_u                
     freq (  45-  45) =        260.7  [cm-1]   --> A_g                
     freq (  46-  46) =        262.1  [cm-1]   --> B_u                
     freq (  47-  47) =        271.4  [cm-1]   --> A_u                
     freq (  48-  48) =        271.9  [cm-1]   --> B_g                
     freq (  49-  49) =        284.2  [cm-1]   --> B_g                
     freq (  50-  50) =        285.0  [cm-1]   --> B_u                
     freq (  51-  51) =        286.2  [cm-1]   --> A_u                
     freq (  52-  52) =        287.1  [cm-1]   --> A_g                
     freq (  53-  53) =        296.6  [cm-1]   --> B_u                
     freq (  54-  54) =        298.3  [cm-1]   --> A_g                
     freq (  55-  55) =        305.4  [cm-1]   --> B_g                
     freq (  56-  56) =        306.7  [cm-1]   --> A_u                
     freq (  57-  57) =        318.3  [cm-1]   --> B_u                
     freq (  58-  58) =        320.1  [cm-1]   --> A_g                
     freq (  59-  59) =        336.8  [cm-1]   --> B_u                
     freq (  60-  60) =        342.2  [cm-1]   --> A_g                
     freq (  61-  61) =        345.5  [cm-1]   --> B_g                
     freq (  62-  62) =        349.0  [cm-1]   --> A_u                
     freq (  63-  63) =        361.8  [cm-1]   --> A_g                
     freq (  64-  64) =        366.0  [cm-1]   --> B_u                
     freq (  65-  65) =        380.4  [cm-1]   --> B_u                
     freq (  66-  66) =        382.4  [cm-1]   --> A_g                

     PHONON       :     15h26m CPU     18h 1m WALL

     INITIALIZATION: 
     phq_setup    :      0.40s CPU      0.45s WALL (       1 calls)
     phq_init     :      1.87s CPU      4.47s WALL (       1 calls)

     phq_init     :      1.87s CPU      4.47s WALL (       1 calls)
     init_vloc    :      0.01s CPU      0.01s WALL (       2 calls)
     init_us_1    :      0.00s CPU      0.00s WALL (       2 calls)
     init_us_2    :      8.09s CPU      9.97s WALL (    5520 calls)

     DYNAMICAL MATRIX:
     phqscf       :  55575.89s CPU  64825.72s WALL (       1 calls)
     dynmatrix    :      7.82s CPU      7.98s WALL (       1 calls)

     phqscf       :  55575.89s CPU  64825.72s WALL (       1 calls)
     solve_linter :  55428.51s CPU  64561.59s WALL (      62 calls)
     sth_kernel   :  49396.71s CPU  56553.04s WALL (     795 calls)
     h_prec       :   3119.94s CPU   3146.32s WALL (    4770 calls)
     apply_dpot_b :   3610.04s CPU   3659.48s WALL (    4596 calls)
     ortho        :    273.98s CPU    276.94s WALL (    4974 calls)
     cgsolve      :  32557.35s CPU  33067.23s WALL (    4974 calls)
     incdrhoscf   :   8129.76s CPU   8245.67s WALL (    4974 calls)
                                        0.00s GPU  (    4974 calls)
     dv_of_drho   :     96.41s CPU    103.42s WALL (     829 calls)
     mix_pot      :   1032.88s CPU   2020.83s WALL (     795 calls)
     drhodv       :    145.44s CPU    185.77s WALL (      62 calls)
     psymdvscf    :    771.15s CPU    862.39s WALL (     795 calls)
     com_dvloc    :    477.66s CPU    482.56s WALL (    4476 calls)
                                        0.00s GPU  (    4476 calls)
     addcore      :      0.37s CPU      0.42s WALL (     829 calls)
                                        0.00s GPU  (     829 calls)

     dvqpsi_us    :    649.11s CPU    656.18s WALL (     384 calls)
                                        0.00s GPU  (     384 calls)
     dvqpsi_us_on :     12.16s CPU     12.40s WALL (     384 calls)

     add_vuspsi   :    977.91s CPU    994.00s WALL (  211146 calls)


      General routines
     calbec       :   1401.81s CPU   1425.52s WALL (  212706 calls)
     fft          :     50.87s CPU     53.72s WALL (    9142 calls)
     ffts         :    474.55s CPU    479.36s WALL (    4476 calls)
     fftw         :  32895.54s CPU  33372.03s WALL (17137080 calls)
     davcio       :      6.35s CPU   7576.33s WALL (   32757 calls)
     write_rec    :      4.42s CPU    691.45s WALL (     857 calls)

      Additional routines
     ch_psi       :  31550.56s CPU  32041.87s WALL (  211146 calls)
     last         :   1304.48s CPU   1325.71s WALL (  211146 calls)
     Hesh         :    157.77s CPU    160.68s WALL (  211146 calls)
     ch_psi_all_k :   1145.14s CPU   1163.79s WALL (  211146 calls)
                                        0.00s GPU  (  211146 calls)
     h_psi_bgrp   :  29824.74s CPU  30285.49s WALL (  211146 calls)
     h_psi        :  29824.07s CPU  30285.05s WALL (  211146 calls)
     h_psi:pot    :  29668.10s CPU  30125.29s WALL (  211146 calls)
     h_psi:calbec :   1316.36s CPU   1338.76s WALL (  211146 calls)
     s_psi_bgrp   :    191.36s CPU    195.06s WALL (  427266 calls)


     PHONON       :     15h26m CPU     18h 1m WALL


   This run was terminated on:  12:17:20  12May2025            

=------------------------------------------------------------------------------=
   JOB DONE.
=------------------------------------------------------------------------------=
