
     Program Q2R v.7.4.1 starts on 12May2025 at 12:17:32 

     This program is part of the open-source Quantum ESPRESSO suite
     for quantum simulation of materials; please cite
         "P. Giannozzi et al., J. Phys.:Condens. Matter 21 395502 (2009);
         "P. Giannozzi et al., J. Phys.:Condens. Matter 29 465901 (2017);
         "P. Giannozzi et al., J. Chem. Phys. 152 154105 (2020);
          URL http://www.quantum-espresso.org", 
     in publications or presentations arising from this work. More details at
     http://www.quantum-espresso.org/quote

     Parallel version (MPI), running on     1 processors

     MPI processes distributed on     1 nodes
     361713 MiB available memory on the printing compute node when the environment starts


  reading grid info from file dyn0    

  reading force constants from file dyn1
 macroscopic fields = T
   6.72930   0.00000  -0.00000
   0.00000   6.72930   0.00000
  -0.00000   0.00000   3.57227
  na=            1
   3.43156   0.00000  -1.16804
  -0.00000   1.88212   0.00000
  -0.43061  -0.00000   1.26002
  na=            2
   2.26948  -0.67093   0.58402
  -0.67093   3.04420  -1.01155
   0.21530  -0.37292   1.26002
  na=            3
   2.26948   0.67093   0.58402
   0.67093   3.04420   1.01155
   0.21530   0.37292   1.26002
  na=            4
   3.43156   0.00000  -1.16804
   0.00000   1.88212   0.00000
  -0.43061   0.00000   1.26002
  na=            5
   2.26948  -0.67093   0.58402
  -0.67093   3.04420  -1.01155
   0.21530  -0.37292   1.26002
  na=            6
   2.26948   0.67093   0.58402
   0.67093   3.04420   1.01155
   0.21530   0.37292   1.26002
  na=            7
  -0.08157   0.00000   0.00000
   0.00000  -0.08157   0.00000
  -0.00000   0.00000  -0.21400
  na=            8
  -0.40732   0.00000   0.08774
   0.00000  -2.58455   0.00000
   0.12206  -0.00000  -0.50547
  na=            9
  -2.04024  -0.94277  -0.04387
  -0.94277  -0.95163   0.07599
  -0.06103   0.10571  -0.50547
  na=           10
  -2.04024   0.94277  -0.04387
   0.94277  -0.95163  -0.07599
  -0.06103  -0.10571  -0.50547
  na=           11
  -1.42910  -0.00000   0.00000
  -0.00000  -1.42910  -0.00000
   0.00000  -0.00000  -0.36184
  na=           12
  -0.64634  -0.00000   0.65930
   0.00000  -0.58239  -0.00000
   0.49198  -0.00000  -0.29965
  na=           13
  -0.59838   0.02769  -0.32965
   0.02769  -0.63036   0.57097
  -0.24599   0.42607  -0.29965
  na=           14
  -0.59838  -0.02769  -0.32965
  -0.02769  -0.63036  -0.57097
  -0.24599  -0.42607  -0.29965
  na=           15
  -0.64634   0.00000   0.65930
   0.00000  -0.58239   0.00000
   0.49198   0.00000  -0.29965
  na=           16
  -0.59838   0.02769  -0.32965
   0.02769  -0.63036   0.57097
  -0.24599   0.42607  -0.29965
  na=           17
  -0.59838  -0.02769  -0.32965
  -0.02769  -0.63036  -0.57097
  -0.24599  -0.42607  -0.29965
  na=           18
  -1.42910  -0.00000   0.00000
  -0.00000  -1.42910  -0.00000
   0.00000  -0.00000  -0.36184
  na=           19
  -0.40732  -0.00000   0.08774
  -0.00000  -2.58455  -0.00000
   0.12206  -0.00000  -0.50547
  na=           20
  -2.04024  -0.94277  -0.04387
  -0.94277  -0.95163   0.07599
  -0.06103   0.10571  -0.50547
  na=           21
  -2.04024   0.94277  -0.04387
   0.94277  -0.95163  -0.07599
  -0.06103  -0.10571  -0.50547
  na=           22
  -0.08157   0.00000   0.00000
   0.00000  -0.08157   0.00000
   0.00000   0.00000  -0.21400
  alpha Ewald:    4.1040588370318520     
  nqs=            1
 q=   0.00000000  0.00000000  0.00000000
  reading force constants from file dyn2
  alpha Ewald:    4.1040588370318520     
  nqs=            1
 q=   0.00000000  0.00000000 -0.27426727
  reading force constants from file dyn3
  alpha Ewald:    4.1040588370318520     
  nqs=            3
 q=   0.28867514 -0.50000000  0.09142242
 q=   0.57735027  0.00000000 -0.09142242
 q=  -0.28867514 -0.50000000 -0.09142242
  reading force constants from file dyn4
  alpha Ewald:    4.1040588370318520     
  nqs=            3
 q=   0.28867514 -0.50000000 -0.18284485
 q=   0.57735027  0.00000000  0.18284485
 q=  -0.28867514 -0.50000000  0.18284485

      q-space grid ok, #points =    8

      fft-check warning: sum of imaginary terms = 1.164279E-08

     Q2R          :      0.84s CPU      1.49s WALL


   This run was terminated on:  12:17:34  12May2025            

=------------------------------------------------------------------------------=
   JOB DONE.
=------------------------------------------------------------------------------=
