
     Program PHONON v.7.3.1 starts on  7May2025 at 21: 5:32 

     This program is part of the open-source Quantum ESPRESSO suite
     for quantum simulation of materials; please cite
         "P. Giannozzi et al., J. Phys.:Condens. Matter 21 395502 (2009);
         "P. Giannozzi et al., J. Phys.:Condens. Matter 29 465901 (2017);
         "P. Giannozzi et al., J. Chem. Phys. 152 154105 (2020);
          URL http://www.quantum-espresso.org", 
     in publications or presentations arising from this work. More details at
     http://www.quantum-espresso.org/quote

     Parallel version (MPI & OpenMP), running on     384 processor cores
     Number of MPI processes:               384
     Threads/MPI process:                     1

     MPI processes distributed on     2 nodes
     338673 MiB available memory on the printing compute node when the environment starts

     Waiting for input...
     Reading input from standard input
     Run is not recoverable starting from scratch

     Reading xml data from directory:

     ./out/Nb3Cl8.save/

     K-points division:     npool     =      12
     R & G space division:  proc/nbgrp/npool/nimage =      32
     Subspace diagonalization in iterative solution of the eigenvalue problem:
     a serial algorithm will be used


     IMPORTANT: XC functional enforced from input :
     Exchange-correlation= PBE
                           (   1   4   3   4   0   0   0)
     Any further DFT definition will be discarded
     Please, verify this is what you really want


     Parallelization info
     --------------------
     sticks:   dense  smooth     PW     G-vecs:    dense   smooth      PW
     Min         140     140     37                34374    34374    4725
     Max         141     141     38                34388    34388    4743
     Sum        4483    4483   1189              1100103  1100103  151427

     Using Slab Decomposition

     Message from routine divide_et_impera:
     suboptimal parallelization: some nodes have no k-points
     Reading collected, re-writing distributed wavefunctions in ./out/


     Dynamical matrices for ( 2, 2, 1)  uniform grid of q-points
     (   2 q-points):
       N         xq(1)         xq(2)         xq(3) 
       1   0.000000000   0.000000000   0.000000000
       2   0.288675135  -0.500000000   0.000000000

     Number and degeneracy of irreps per q-point
       N         xq(1)         xq(2)         xq(3)   N irreps
       1   0.000000000   0.000000000   0.000000000      44
        1   1   1   1   1   1   1   1   1   1   1   2   2   2   2   2   2   2
   2   2   2   2   1   1   1   1   1   1   1   1   1   1   1   2   2   2
   2   2   2   2   2   2   2   2
       2   0.288675135  -0.500000000   0.000000000      66
     No degeneracy

     Saving dvscf to file. Distribute only q points, not irreducible representations.

     Calculation of q =    0.0000000   0.0000000   0.0000000

     Nb3Cl8                                                                     

     bravais-lattice index     =            0
     lattice parameter (alat)  =      12.7288  a.u.
     unit-cell volume          =    8140.0419 (a.u.)^3
     number of atoms/cell      =           22
     number of atomic types    =            2
     kinetic-energy cut-off    =     100.0000  Ry
     charge density cut-off    =     400.0000  Ry
     convergence threshold     =      1.0E-16
     beta                      =       0.7000
     number of iterations used =            4
     Exchange-correlation= PBE
                           (   1   4   3   4   0   0   0)


     celldm(1)=   12.72878  celldm(2)=    0.00000  celldm(3)=    0.00000
     celldm(4)=    0.00000  celldm(5)=    0.00000  celldm(6)=    0.00000

     crystal axes: (cart. coord. in units of alat)
               a(1) = (  0.8660  0.5000  0.0000 )  
               a(2) = ( -0.8660  0.5000  0.0000 )  
               a(3) = (  0.0000  0.0000  4.5576 )  

     reciprocal axes: (cart. coord. in units 2 pi/alat)
               b(1) = (  0.5774  1.0000 -0.0000 )  
               b(2) = ( -0.5774  1.0000  0.0000 )  
               b(3) = (  0.0000 -0.0000  0.2194 )  


     Atoms inside the unit cell: 

     Cartesian axes

     site n.  atom      mass           positions (alat units)
        1  Nb     92.9064   tau(    1) = (    0.23992   -0.00000   -0.46280  )
        2  Nb     92.9064   tau(    2) = (   -0.11996    0.20778   -0.46280  )
        3  Nb     92.9064   tau(    3) = (   -0.11996   -0.20778   -0.46280  )
        4  Nb     92.9064   tau(    4) = (   -0.23992    0.00000    0.46280  )
        5  Nb     92.9064   tau(    5) = (    0.11996   -0.20778    0.46280  )
        6  Nb     92.9064   tau(    6) = (    0.11996    0.20778    0.46280  )
        7  Cl     35.4527   tau(    7) = (    0.00000    0.00000   -0.73702  )
        8  Cl     35.4527   tau(    8) = (   -0.86393   -0.00000   -0.66622  )
        9  Cl     35.4527   tau(    9) = (   -0.43406   -0.24819   -0.66622  )
       10  Cl     35.4527   tau(   10) = (   -0.43406    0.24819   -0.66622  )
       11  Cl     35.4527   tau(   11) = (    0.57735    0.00000   -0.25993  )
       12  Cl     35.4527   tau(   12) = (   -0.28634    0.00000   -0.21902  )
       13  Cl     35.4527   tau(   13) = (    0.14317   -0.24798   -0.21902  )
       14  Cl     35.4527   tau(   14) = (    0.14317    0.24798   -0.21902  )
       15  Cl     35.4527   tau(   15) = (    0.28634   -0.00000    0.21902  )
       16  Cl     35.4527   tau(   16) = (   -0.14317    0.24798    0.21902  )
       17  Cl     35.4527   tau(   17) = (   -0.14317   -0.24798    0.21902  )
       18  Cl     35.4527   tau(   18) = (   -0.57735   -0.00000    0.25993  )
       19  Cl     35.4527   tau(   19) = (    0.86393    0.00000    0.66622  )
       20  Cl     35.4527   tau(   20) = (    0.43406    0.24819    0.66622  )
       21  Cl     35.4527   tau(   21) = (    0.43406   -0.24819    0.66622  )
       22  Cl     35.4527   tau(   22) = (    0.00000    0.00000    0.73702  )

     Computing dynamical matrix for 
                    q = (   0.0000000   0.0000000   0.0000000 )

     13 Sym.Ops. (with q -> -q+G )


     G cutoff = 1641.6235  (  34378 G-vectors)     FFT grid: ( 81, 81,375)

     number of k points=     7  Gaussian smearing, width (Ry)=  0.0037

     PseudoPot. # 1 for Nb read from file:
     /scratch-shared/mroesner/Nb3X8_cDFPT/pp/Nb_ONCV_PBE-1.2.upf
     MD5 check sum: 2c750ac0b6910ff4cf0ab5f6c4124a64
     Pseudo is Norm-conserving, Zval = 13.0
     Generated using ONCVPSP code by D. R. Hamann
     Using radial grid of  602 points,  6 beta functions with: 
                l(1) =   0
                l(2) =   0
                l(3) =   1
                l(4) =   1
                l(5) =   2
                l(6) =   2

     PseudoPot. # 2 for Cl read from file:
     /scratch-shared/mroesner/Nb3X8_cDFPT/pp/Cl_ONCV_PBE-1.2.upf
     MD5 check sum: 0f993535b366f580ecbcdacce103c843
     Pseudo is Norm-conserving, Zval =  7.0
     Generated using ONCVPSP code by D. R. Hamann
     Using radial grid of  602 points,  4 beta functions with: 
                l(1) =   0
                l(2) =   0
                l(3) =   1
                l(4) =   1

     Mode symmetry, D_3d (-3m)  point group:


     Atomic displacements:
     There are   44 irreducible representations

     Representation     1      1 modes -  To be done

     Representation     2      1 modes -  To be done

     Representation     3      1 modes -  To be done

     Representation     4      1 modes -  To be done

     Representation     5      1 modes -  To be done

     Representation     6      1 modes -  To be done

     Representation     7      1 modes -  To be done

     Representation     8      1 modes -  To be done

     Representation     9      1 modes -  To be done

     Representation    10      1 modes -  To be done

     Representation    11      1 modes -  To be done

     Representation    12      2 modes -  To be done

     Representation    13      2 modes -  To be done

     Representation    14      2 modes -  To be done

     Representation    15      2 modes -  To be done

     Representation    16      2 modes -  To be done

     Representation    17      2 modes -  To be done

     Representation    18      2 modes -  To be done

     Representation    19      2 modes -  To be done

     Representation    20      2 modes -  To be done

     Representation    21      2 modes -  To be done

     Representation    22      2 modes -  To be done

     Representation    23      1 modes -  To be done

     Representation    24      1 modes -  To be done

     Representation    25      1 modes -  To be done

     Representation    26      1 modes -  To be done

     Representation    27      1 modes -  To be done

     Representation    28      1 modes -  To be done

     Representation    29      1 modes -  To be done

     Representation    30      1 modes -  To be done

     Representation    31      1 modes -  To be done

     Representation    32      1 modes -  To be done

     Representation    33      1 modes -  To be done

     Representation    34      2 modes -  To be done

     Representation    35      2 modes -  To be done

     Representation    36      2 modes -  To be done

     Representation    37      2 modes -  To be done

     Representation    38      2 modes -  To be done

     Representation    39      2 modes -  To be done

     Representation    40      2 modes -  To be done

     Representation    41      2 modes -  To be done

     Representation    42      2 modes -  To be done

     Representation    43      2 modes -  To be done

     Representation    44      2 modes -  To be done



     Alpha used in Ewald sum =   2.8000

     Reading Grimme-D3 Hessian from file: ./out/Nb3Cl8.hess

     Number of cells replicated along each semiaxis:    9   9   2
     Number of cells in the supercell:      1805
     Number of atoms in the supercell:     39710
     Hessian allocation dimension:   7862580

     Grimme-D3 Hessian read 

     Computing dynamical matrix for q:     0.000000    0.000000    0.000000

     Writing Hessian on file dynamical.false.dat

     Dynamical matrix computed
     PHONON       :     50.93s CPU     99.38s WALL



     Representation #   1 mode #   1

     Self-consistent Calculation

     Pert. #  1: Fermi energy shift (Ry) =    -3.8458E-01    -4.8468E-27

      iter #   1 total cpu time :   165.1 secs   av.it.:   8.0
      thresh= 1.000E-02 alpha_mix =  0.700 |ddv_scf|^2 =  1.659E-07

     Pert. #  1: Fermi energy shift (Ry) =     6.3049E-01     8.0779E-27

      iter #   2 total cpu time :   232.6 secs   av.it.:  17.9
      thresh= 4.073E-05 alpha_mix =  0.700 |ddv_scf|^2 =  3.159E-07

     Pert. #  1: Fermi energy shift (Ry) =    -2.2835E-01    -4.5438E-28

      iter #   3 total cpu time :   259.7 secs   av.it.:  16.7
      thresh= 5.620E-05 alpha_mix =  0.700 |ddv_scf|^2 =  1.597E-08

     Pert. #  1: Fermi energy shift (Ry) =    -5.4987E-02     7.0682E-28

      iter #   4 total cpu time :   304.4 secs   av.it.:  16.7
      thresh= 1.264E-05 alpha_mix =  0.700 |ddv_scf|^2 =  1.472E-09

     Pert. #  1: Fermi energy shift (Ry) =    -3.6707E-02     3.0292E-28

      iter #   5 total cpu time :   338.5 secs   av.it.:  15.3
      thresh= 3.836E-06 alpha_mix =  0.700 |ddv_scf|^2 =  2.729E-10

     Pert. #  1: Fermi energy shift (Ry) =    -4.6270E-02     4.5438E-28

      iter #   6 total cpu time :   367.9 secs   av.it.:  15.7
      thresh= 1.652E-06 alpha_mix =  0.700 |ddv_scf|^2 =  3.785E-12

     Pert. #  1: Fermi energy shift (Ry) =    -4.8962E-02     5.0487E-28

      iter #   7 total cpu time :   396.4 secs   av.it.:  17.4
      thresh= 1.945E-07 alpha_mix =  0.700 |ddv_scf|^2 =  6.606E-13

     Pert. #  1: Fermi energy shift (Ry) =    -4.8683E-02     4.5438E-28

      iter #   8 total cpu time :   426.8 secs   av.it.:  16.7
      thresh= 8.128E-08 alpha_mix =  0.700 |ddv_scf|^2 =  5.074E-14

     Pert. #  1: Fermi energy shift (Ry) =    -4.8344E-02     5.0487E-28

      iter #   9 total cpu time :   450.0 secs   av.it.:  17.4
      thresh= 2.252E-08 alpha_mix =  0.700 |ddv_scf|^2 =  1.496E-14

     Pert. #  1: Fermi energy shift (Ry) =    -4.8466E-02     5.0487E-28

      iter #  10 total cpu time :   479.3 secs   av.it.:  17.0
      thresh= 1.223E-08 alpha_mix =  0.700 |ddv_scf|^2 =  2.455E-15

     Pert. #  1: Fermi energy shift (Ry) =    -4.8487E-02     5.0487E-28

      iter #  11 total cpu time :   500.0 secs   av.it.:  16.7
      thresh= 4.955E-09 alpha_mix =  0.700 |ddv_scf|^2 =  9.730E-16

     Pert. #  1: Fermi energy shift (Ry) =    -4.8500E-02     5.0487E-28

      iter #  12 total cpu time :   524.2 secs   av.it.:  16.9
      thresh= 3.119E-09 alpha_mix =  0.700 |ddv_scf|^2 =  3.170E-16

     Pert. #  1: Fermi energy shift (Ry) =    -4.8473E-02     5.0487E-28

      iter #  13 total cpu time :   547.6 secs   av.it.:  17.0
      thresh= 1.780E-09 alpha_mix =  0.700 |ddv_scf|^2 =  4.819E-17

     End of self-consistent calculation

     Convergence has been achieved 


     Representation #   2 mode #   2

     Self-consistent Calculation

     Pert. #  1: Fermi energy shift (Ry) =    -2.3702E-02     4.8468E-27

      iter #   1 total cpu time :   625.0 secs   av.it.:   6.0
      thresh= 1.000E-02 alpha_mix =  0.700 |ddv_scf|^2 =  3.015E-08

     Pert. #  1: Fermi energy shift (Ry) =     1.0803E-01    -6.0585E-28

      iter #   2 total cpu time :   663.4 secs   av.it.:  17.7
      thresh= 1.736E-05 alpha_mix =  0.700 |ddv_scf|^2 =  3.308E-08

     Pert. #  1: Fermi energy shift (Ry) =    -6.5730E-02     8.0779E-28

      iter #   3 total cpu time :   693.4 secs   av.it.:  16.9
      thresh= 1.819E-05 alpha_mix =  0.700 |ddv_scf|^2 =  6.199E-09

     Pert. #  1: Fermi energy shift (Ry) =    -1.7881E-02     1.6156E-27

      iter #   4 total cpu time :   722.3 secs   av.it.:  15.7
      thresh= 7.873E-06 alpha_mix =  0.700 |ddv_scf|^2 =  8.273E-10

     Pert. #  1: Fermi energy shift (Ry) =     1.0070E-02     1.6156E-27

      iter #   5 total cpu time :   750.6 secs   av.it.:  14.7
      thresh= 2.876E-06 alpha_mix =  0.700 |ddv_scf|^2 =  1.432E-11

     Pert. #  1: Fermi energy shift (Ry) =     5.1710E-03     1.6156E-27

      iter #   6 total cpu time :   774.1 secs   av.it.:  16.7
      thresh= 3.784E-07 alpha_mix =  0.700 |ddv_scf|^2 =  9.424E-13

     Pert. #  1: Fermi energy shift (Ry) =     6.3596E-03     1.6156E-27

      iter #   7 total cpu time :   799.6 secs   av.it.:  17.1
      thresh= 9.707E-08 alpha_mix =  0.700 |ddv_scf|^2 =  4.768E-13

     Pert. #  1: Fermi energy shift (Ry) =     5.4503E-03     1.6156E-27

      iter #   8 total cpu time :   823.8 secs   av.it.:  16.7
      thresh= 6.905E-08 alpha_mix =  0.700 |ddv_scf|^2 =  4.492E-14

     Pert. #  1: Fermi energy shift (Ry) =     5.5284E-03     1.6156E-27

      iter #   9 total cpu time :   847.0 secs   av.it.:  16.7
      thresh= 2.119E-08 alpha_mix =  0.700 |ddv_scf|^2 =  4.191E-15

     Pert. #  1: Fermi energy shift (Ry) =     5.6131E-03     1.6156E-27

      iter #  10 total cpu time :   871.0 secs   av.it.:  17.3
      thresh= 6.474E-09 alpha_mix =  0.700 |ddv_scf|^2 =  2.662E-15

     Pert. #  1: Fermi energy shift (Ry) =     5.5459E-03     1.6156E-27

      iter #  11 total cpu time :   893.6 secs   av.it.:  16.9
      thresh= 5.160E-09 alpha_mix =  0.700 |ddv_scf|^2 =  3.382E-15

     Pert. #  1: Fermi energy shift (Ry) =     5.5500E-03     1.6156E-27

      iter #  12 total cpu time :   921.6 secs   av.it.:  15.7
      thresh= 5.816E-09 alpha_mix =  0.700 |ddv_scf|^2 =  3.152E-16

     Pert. #  1: Fermi energy shift (Ry) =     5.5525E-03     1.6156E-27

      iter #  13 total cpu time :   961.4 secs   av.it.:  16.7
      thresh= 1.775E-09 alpha_mix =  0.700 |ddv_scf|^2 =  2.908E-17

     End of self-consistent calculation

     Convergence has been achieved 


     Representation #   3 mode #   3

     Self-consistent Calculation

     Pert. #  1: Fermi energy shift (Ry) =     5.9135E-01     2.8273E-27

      iter #   1 total cpu time :  1059.9 secs   av.it.:   6.0
      thresh= 1.000E-02 alpha_mix =  0.700 |ddv_scf|^2 =  3.187E-07

     Pert. #  1: Fermi energy shift (Ry) =    -1.3169E+00    -4.8468E-27

      iter #   2 total cpu time :  1086.7 secs   av.it.:  16.3
      thresh= 5.645E-05 alpha_mix =  0.700 |ddv_scf|^2 =  2.126E-06

     Pert. #  1: Fermi energy shift (Ry) =    -3.4105E-02     2.0195E-27

      iter #   3 total cpu time :  1122.7 secs   av.it.:  14.1
      thresh= 1.458E-04 alpha_mix =  0.700 |ddv_scf|^2 =  3.399E-08

     Pert. #  1: Fermi energy shift (Ry) =     3.9400E-02     2.0195E-28

      iter #   4 total cpu time :  1168.1 secs   av.it.:  15.4
      thresh= 1.844E-05 alpha_mix =  0.700 |ddv_scf|^2 =  1.355E-09

     Pert. #  1: Fermi energy shift (Ry) =    -2.2856E-02     5.0487E-28

      iter #   5 total cpu time :  1200.4 secs   av.it.:  16.7
      thresh= 3.681E-06 alpha_mix =  0.700 |ddv_scf|^2 =  8.189E-11

     Pert. #  1: Fermi energy shift (Ry) =    -1.4573E-02     5.0487E-28

      iter #   6 total cpu time :  1240.7 secs   av.it.:  16.7
      thresh= 9.049E-07 alpha_mix =  0.700 |ddv_scf|^2 =  1.169E-11

     Pert. #  1: Fermi energy shift (Ry) =    -1.0550E-02     5.0487E-28

      iter #   7 total cpu time :  1265.8 secs   av.it.:  17.1
      thresh= 3.420E-07 alpha_mix =  0.700 |ddv_scf|^2 =  6.862E-12

     Pert. #  1: Fermi energy shift (Ry) =    -1.2245E-02     5.0487E-28

      iter #   8 total cpu time :  1289.0 secs   av.it.:  16.3
      thresh= 2.620E-07 alpha_mix =  0.700 |ddv_scf|^2 =  2.639E-13

     Pert. #  1: Fermi energy shift (Ry) =    -1.2137E-02     5.0487E-28

      iter #   9 total cpu time :  1311.2 secs   av.it.:  17.6
      thresh= 5.138E-08 alpha_mix =  0.700 |ddv_scf|^2 =  1.365E-13

     Pert. #  1: Fermi energy shift (Ry) =    -1.2314E-02     5.0487E-28

      iter #  10 total cpu time :  1335.9 secs   av.it.:  16.7
      thresh= 3.695E-08 alpha_mix =  0.700 |ddv_scf|^2 =  3.530E-14

     Pert. #  1: Fermi energy shift (Ry) =    -1.1992E-02     5.0487E-28

      iter #  11 total cpu time :  1363.1 secs   av.it.:  16.7
      thresh= 1.879E-08 alpha_mix =  0.700 |ddv_scf|^2 =  6.311E-15

     Pert. #  1: Fermi energy shift (Ry) =    -1.2099E-02     5.0487E-28

      iter #  12 total cpu time :  1395.9 secs   av.it.:  16.0
      thresh= 7.944E-09 alpha_mix =  0.700 |ddv_scf|^2 =  7.512E-17

     End of self-consistent calculation

     Convergence has been achieved 


     Representation #   4 mode #   4

     Self-consistent Calculation

     Pert. #  1: Fermi energy shift (Ry) =     9.0385E-01    -3.2312E-27

      iter #   1 total cpu time :  1465.8 secs   av.it.:   8.0
      thresh= 1.000E-02 alpha_mix =  0.700 |ddv_scf|^2 =  4.166E-06

     Pert. #  1: Fermi energy shift (Ry) =    -3.4108E+00     1.9387E-26

      iter #   2 total cpu time :  1512.7 secs   av.it.:  16.7
      thresh= 2.041E-04 alpha_mix =  0.700 |ddv_scf|^2 =  4.689E-05

     Pert. #  1: Fermi energy shift (Ry) =    -1.4479E-02     6.0585E-28

      iter #   3 total cpu time :  1572.7 secs   av.it.:  13.7
      thresh= 6.848E-04 alpha_mix =  0.700 |ddv_scf|^2 =  1.148E-08

     Pert. #  1: Fermi energy shift (Ry) =     5.7172E-02     1.6156E-27

      iter #   4 total cpu time :  1619.3 secs   av.it.:  16.9
      thresh= 1.072E-05 alpha_mix =  0.700 |ddv_scf|^2 =  1.368E-09

     Pert. #  1: Fermi energy shift (Ry) =    -2.3182E-02     1.2117E-27

      iter #   5 total cpu time :  1669.7 secs   av.it.:  17.0
      thresh= 3.698E-06 alpha_mix =  0.700 |ddv_scf|^2 =  6.421E-10

     Pert. #  1: Fermi energy shift (Ry) =     9.0146E-03     1.6156E-27

      iter #   6 total cpu time :  1693.5 secs   av.it.:  16.0
      thresh= 2.534E-06 alpha_mix =  0.700 |ddv_scf|^2 =  2.948E-11

     Pert. #  1: Fermi energy shift (Ry) =     1.0479E-02     1.6156E-27

      iter #   7 total cpu time :  1719.7 secs   av.it.:  16.7
      thresh= 5.430E-07 alpha_mix =  0.700 |ddv_scf|^2 =  8.976E-12

     Pert. #  1: Fermi energy shift (Ry) =     9.7540E-03     1.6156E-27

      iter #   8 total cpu time :  1749.0 secs   av.it.:  16.1
      thresh= 2.996E-07 alpha_mix =  0.700 |ddv_scf|^2 =  5.079E-13

     Pert. #  1: Fermi energy shift (Ry) =     1.0008E-02     1.6156E-27

      iter #   9 total cpu time :  1773.1 secs   av.it.:  17.1
      thresh= 7.127E-08 alpha_mix =  0.700 |ddv_scf|^2 =  1.800E-13

     Pert. #  1: Fermi energy shift (Ry) =     1.0030E-02     1.6156E-27

      iter #  10 total cpu time :  1801.7 secs   av.it.:  16.4
      thresh= 4.242E-08 alpha_mix =  0.700 |ddv_scf|^2 =  4.496E-14

     Pert. #  1: Fermi energy shift (Ry) =     1.0525E-02     1.6156E-27

      iter #  11 total cpu time :  1827.1 secs   av.it.:  17.0
      thresh= 2.120E-08 alpha_mix =  0.700 |ddv_scf|^2 =  4.732E-14

     Pert. #  1: Fermi energy shift (Ry) =     1.0174E-02     1.6156E-27

      iter #  12 total cpu time :  1852.1 secs   av.it.:  16.0
      thresh= 2.175E-08 alpha_mix =  0.700 |ddv_scf|^2 =  1.357E-15

     Pert. #  1: Fermi energy shift (Ry) =     1.0188E-02     1.6156E-27

      iter #  13 total cpu time :  1907.1 secs   av.it.:  16.7
      thresh= 3.684E-09 alpha_mix =  0.700 |ddv_scf|^2 =  7.614E-17

     End of self-consistent calculation

     Convergence has been achieved 


     Representation #   5 mode #   5

     Self-consistent Calculation

     Pert. #  1: Fermi energy shift (Ry) =    -4.4581E-02    -1.6156E-27

      iter #   1 total cpu time :  1949.5 secs   av.it.:   6.1
      thresh= 1.000E-02 alpha_mix =  0.700 |ddv_scf|^2 =  5.026E-07

     Pert. #  1: Fermi energy shift (Ry) =     4.6450E-01     3.2312E-27

      iter #   2 total cpu time :  1977.7 secs   av.it.:  16.7
      thresh= 7.089E-05 alpha_mix =  0.700 |ddv_scf|^2 =  5.708E-06

     Pert. #  1: Fermi energy shift (Ry) =    -2.1103E-01     5.0487E-29

      iter #   3 total cpu time :  2055.4 secs   av.it.:  14.0
      thresh= 2.389E-04 alpha_mix =  0.700 |ddv_scf|^2 =  1.839E-08

     Pert. #  1: Fermi energy shift (Ry) =     3.5514E-02    -4.0390E-28

      iter #   4 total cpu time :  2089.6 secs   av.it.:  16.0
      thresh= 1.356E-05 alpha_mix =  0.700 |ddv_scf|^2 =  1.262E-09

     Pert. #  1: Fermi energy shift (Ry) =    -2.0638E-02    -2.0195E-28

      iter #   5 total cpu time :  2119.4 secs   av.it.:  16.9
      thresh= 3.552E-06 alpha_mix =  0.700 |ddv_scf|^2 =  3.631E-11

     Pert. #  1: Fermi energy shift (Ry) =    -1.4461E-02    -2.0195E-28

      iter #   6 total cpu time :  2144.8 secs   av.it.:  17.0
      thresh= 6.026E-07 alpha_mix =  0.700 |ddv_scf|^2 =  4.711E-12

     Pert. #  1: Fermi energy shift (Ry) =    -1.5094E-02    -2.0195E-28

      iter #   7 total cpu time :  2166.6 secs   av.it.:  16.0
      thresh= 2.170E-07 alpha_mix =  0.700 |ddv_scf|^2 =  1.077E-13

     Pert. #  1: Fermi energy shift (Ry) =    -1.4768E-02    -2.0195E-28

      iter #   8 total cpu time :  2193.2 secs   av.it.:  16.7
      thresh= 3.281E-08 alpha_mix =  0.700 |ddv_scf|^2 =  1.010E-14

     Pert. #  1: Fermi energy shift (Ry) =    -1.4789E-02    -2.0195E-28

      iter #   9 total cpu time :  2216.7 secs   av.it.:  17.4
      thresh= 1.005E-08 alpha_mix =  0.700 |ddv_scf|^2 =  6.333E-15

     Pert. #  1: Fermi energy shift (Ry) =    -1.4846E-02    -2.0195E-28

      iter #  10 total cpu time :  2243.2 secs   av.it.:  16.7
      thresh= 7.958E-09 alpha_mix =  0.700 |ddv_scf|^2 =  1.977E-15

     Pert. #  1: Fermi energy shift (Ry) =    -1.4757E-02    -2.0195E-28

      iter #  11 total cpu time :  2265.3 secs   av.it.:  16.9
      thresh= 4.446E-09 alpha_mix =  0.700 |ddv_scf|^2 =  1.395E-15

     Pert. #  1: Fermi energy shift (Ry) =    -1.4806E-02    -2.0195E-28

      iter #  12 total cpu time :  2289.3 secs   av.it.:  16.7
      thresh= 3.734E-09 alpha_mix =  0.700 |ddv_scf|^2 =  3.058E-16

     Pert. #  1: Fermi energy shift (Ry) =    -1.4781E-02    -2.0195E-28

      iter #  13 total cpu time :  2312.7 secs   av.it.:  16.0
      thresh= 1.749E-09 alpha_mix =  0.700 |ddv_scf|^2 =  1.292E-16

     Pert. #  1: Fermi energy shift (Ry) =    -1.4793E-02    -2.0195E-28

      iter #  14 total cpu time :  2346.8 secs   av.it.:  15.6
      thresh= 1.137E-09 alpha_mix =  0.700 |ddv_scf|^2 =  5.742E-18

     End of self-consistent calculation

     Convergence has been achieved 


     Representation #   6 mode #   6

     Self-consistent Calculation

     Pert. #  1: Fermi energy shift (Ry) =    -8.4965E-01    -3.8774E-26

      iter #   1 total cpu time :  2462.2 secs   av.it.:   6.4
      thresh= 1.000E-02 alpha_mix =  0.700 |ddv_scf|^2 =  1.127E-06

     Pert. #  1: Fermi energy shift (Ry) =     2.1897E+00     5.4930E-26

      iter #   2 total cpu time :  2502.2 secs   av.it.:  15.9
      thresh= 1.061E-04 alpha_mix =  0.700 |ddv_scf|^2 =  9.370E-06

     Pert. #  1: Fermi energy shift (Ry) =     9.3997E-02    -1.0501E-26

      iter #   3 total cpu time :  2532.3 secs   av.it.:  13.7
      thresh= 3.061E-04 alpha_mix =  0.700 |ddv_scf|^2 =  5.041E-08

     Pert. #  1: Fermi energy shift (Ry) =    -2.6897E-02    -4.8468E-27

      iter #   4 total cpu time :  2588.8 secs   av.it.:  15.6
      thresh= 2.245E-05 alpha_mix =  0.700 |ddv_scf|^2 =  1.662E-09

     Pert. #  1: Fermi energy shift (Ry) =     5.3001E-02    -6.8662E-27

      iter #   5 total cpu time :  2631.1 secs   av.it.:  17.0
      thresh= 4.077E-06 alpha_mix =  0.700 |ddv_scf|^2 =  5.005E-10

     Pert. #  1: Fermi energy shift (Ry) =     2.5607E-02    -6.4623E-27

      iter #   6 total cpu time :  2659.9 secs   av.it.:  16.0
      thresh= 2.237E-06 alpha_mix =  0.700 |ddv_scf|^2 =  3.327E-11

     Pert. #  1: Fermi energy shift (Ry) =     2.0789E-02    -6.8662E-27

      iter #   7 total cpu time :  2692.2 secs   av.it.:  16.1
      thresh= 5.768E-07 alpha_mix =  0.700 |ddv_scf|^2 =  4.385E-12

     Pert. #  1: Fermi energy shift (Ry) =     2.1299E-02    -6.8662E-27

      iter #   8 total cpu time :  2719.2 secs   av.it.:  16.0
      thresh= 2.094E-07 alpha_mix =  0.700 |ddv_scf|^2 =  4.869E-13

     Pert. #  1: Fermi energy shift (Ry) =     2.2237E-02    -6.8662E-27

      iter #   9 total cpu time :  2745.5 secs   av.it.:  17.0
      thresh= 6.978E-08 alpha_mix =  0.700 |ddv_scf|^2 =  3.986E-13

     Pert. #  1: Fermi energy shift (Ry) =     2.2030E-02    -6.8662E-27

      iter #  10 total cpu time :  2769.8 secs   av.it.:  15.7
      thresh= 6.314E-08 alpha_mix =  0.700 |ddv_scf|^2 =  1.312E-14

     Pert. #  1: Fermi energy shift (Ry) =     2.1904E-02    -6.8662E-27

      iter #  11 total cpu time :  2796.0 secs   av.it.:  16.7
      thresh= 1.145E-08 alpha_mix =  0.700 |ddv_scf|^2 =  2.319E-15

     Pert. #  1: Fermi energy shift (Ry) =     2.1874E-02    -6.8662E-27

      iter #  12 total cpu time :  2827.9 secs   av.it.:  16.6
      thresh= 4.816E-09 alpha_mix =  0.700 |ddv_scf|^2 =  4.170E-16

     Pert. #  1: Fermi energy shift (Ry) =     2.1893E-02    -6.8662E-27

      iter #  13 total cpu time :  2851.8 secs   av.it.:  16.0
      thresh= 2.042E-09 alpha_mix =  0.700 |ddv_scf|^2 =  8.606E-17

     End of self-consistent calculation

     Convergence has been achieved 


     Representation #   7 mode #   7

     Self-consistent Calculation

     Pert. #  1: Fermi energy shift (Ry) =     8.1399E-02     1.2117E-27

      iter #   1 total cpu time :  2965.2 secs   av.it.:   6.0
      thresh= 1.000E-02 alpha_mix =  0.700 |ddv_scf|^2 =  2.079E-07

     Pert. #  1: Fermi energy shift (Ry) =    -4.2490E-01    -9.6935E-27

      iter #   2 total cpu time :  3008.6 secs   av.it.:  16.7
      thresh= 4.560E-05 alpha_mix =  0.700 |ddv_scf|^2 =  2.268E-06

     Pert. #  1: Fermi energy shift (Ry) =     8.8585E-02    -2.5244E-28

      iter #   3 total cpu time :  3041.3 secs   av.it.:  13.9
      thresh= 1.506E-04 alpha_mix =  0.700 |ddv_scf|^2 =  6.321E-09

     Pert. #  1: Fermi energy shift (Ry) =    -3.9730E-02    -4.0390E-28

      iter #   4 total cpu time :  3078.5 secs   av.it.:  16.4
      thresh= 7.950E-06 alpha_mix =  0.700 |ddv_scf|^2 =  8.237E-10

     Pert. #  1: Fermi energy shift (Ry) =     7.3090E-03    -1.0097E-27

      iter #   5 total cpu time :  3126.9 secs   av.it.:  16.7
      thresh= 2.870E-06 alpha_mix =  0.700 |ddv_scf|^2 =  4.499E-11

     Pert. #  1: Fermi energy shift (Ry) =    -7.1807E-04    -8.0779E-28

      iter #   6 total cpu time :  3151.0 secs   av.it.:  16.7
      thresh= 6.707E-07 alpha_mix =  0.700 |ddv_scf|^2 =  3.906E-12

     Pert. #  1: Fermi energy shift (Ry) =     1.8335E-04    -8.0779E-28

      iter #   7 total cpu time :  3175.9 secs   av.it.:  16.6
      thresh= 1.976E-07 alpha_mix =  0.700 |ddv_scf|^2 =  1.336E-13

     Pert. #  1: Fermi energy shift (Ry) =     4.3421E-04    -8.0779E-28

      iter #   8 total cpu time :  3194.5 secs   av.it.:  17.6
      thresh= 3.655E-08 alpha_mix =  0.700 |ddv_scf|^2 =  5.202E-14

     Pert. #  1: Fermi energy shift (Ry) =     2.8888E-04    -8.0779E-28

      iter #   9 total cpu time :  3214.3 secs   av.it.:  16.7
      thresh= 2.281E-08 alpha_mix =  0.700 |ddv_scf|^2 =  8.673E-15

     Pert. #  1: Fermi energy shift (Ry) =     4.6831E-04    -8.0779E-28

      iter #  10 total cpu time :  3243.5 secs   av.it.:  16.7
      thresh= 9.313E-09 alpha_mix =  0.700 |ddv_scf|^2 =  2.667E-15

     Pert. #  1: Fermi energy shift (Ry) =     3.6719E-04    -8.0779E-28

      iter #  11 total cpu time :  3266.8 secs   av.it.:  17.0
      thresh= 5.165E-09 alpha_mix =  0.700 |ddv_scf|^2 =  1.095E-15

     Pert. #  1: Fermi energy shift (Ry) =     4.1335E-04    -8.0779E-28

      iter #  12 total cpu time :  3290.3 secs   av.it.:  16.6
      thresh= 3.309E-09 alpha_mix =  0.700 |ddv_scf|^2 =  1.715E-16

     Pert. #  1: Fermi energy shift (Ry) =     4.0074E-04    -8.0779E-28

      iter #  13 total cpu time :  3313.3 secs   av.it.:  16.7
      thresh= 1.310E-09 alpha_mix =  0.700 |ddv_scf|^2 =  2.055E-17

     End of self-consistent calculation

     Convergence has been achieved 


     Representation #   8 mode #   8

     Self-consistent Calculation

     Pert. #  1: Fermi energy shift (Ry) =     1.5220E-01     4.0390E-28

      iter #   1 total cpu time :  3400.7 secs   av.it.:   6.0
      thresh= 1.000E-02 alpha_mix =  0.700 |ddv_scf|^2 =  5.256E-08

     Pert. #  1: Fermi energy shift (Ry) =    -4.7000E-01     5.0487E-28

      iter #   2 total cpu time :  3455.4 secs   av.it.:  17.7
      thresh= 2.293E-05 alpha_mix =  0.700 |ddv_scf|^2 =  2.373E-07

     Pert. #  1: Fermi energy shift (Ry) =     6.6394E-02    -6.0585E-28

      iter #   3 total cpu time :  3505.3 secs   av.it.:  15.3
      thresh= 4.872E-05 alpha_mix =  0.700 |ddv_scf|^2 =  2.123E-08

     Pert. #  1: Fermi energy shift (Ry) =     2.8095E-02     5.0487E-28

      iter #   4 total cpu time :  3563.2 secs   av.it.:  15.7
      thresh= 1.457E-05 alpha_mix =  0.700 |ddv_scf|^2 =  7.304E-10

     Pert. #  1: Fermi energy shift (Ry) =    -5.8405E-03     2.0195E-28

      iter #   5 total cpu time :  3601.8 secs   av.it.:  16.6
      thresh= 2.703E-06 alpha_mix =  0.700 |ddv_scf|^2 =  4.871E-11

     Pert. #  1: Fermi energy shift (Ry) =    -3.6631E-03     2.5244E-28

      iter #   6 total cpu time :  3629.6 secs   av.it.:  16.1
      thresh= 6.979E-07 alpha_mix =  0.700 |ddv_scf|^2 =  1.972E-12

     Pert. #  1: Fermi energy shift (Ry) =    -3.5728E-03     2.5244E-28

      iter #   7 total cpu time :  3658.2 secs   av.it.:  16.9
      thresh= 1.404E-07 alpha_mix =  0.700 |ddv_scf|^2 =  2.095E-13

     Pert. #  1: Fermi energy shift (Ry) =    -3.1006E-03     2.5244E-28

      iter #   8 total cpu time :  3685.5 secs   av.it.:  17.6
      thresh= 4.577E-08 alpha_mix =  0.700 |ddv_scf|^2 =  5.989E-14

     Pert. #  1: Fermi energy shift (Ry) =    -3.3976E-03     2.5244E-28

      iter #   9 total cpu time :  3708.6 secs   av.it.:  16.0
      thresh= 2.447E-08 alpha_mix =  0.700 |ddv_scf|^2 =  8.280E-15

     Pert. #  1: Fermi energy shift (Ry) =    -3.4311E-03     2.5244E-28

      iter #  10 total cpu time :  3736.6 secs   av.it.:  17.3
      thresh= 9.099E-09 alpha_mix =  0.700 |ddv_scf|^2 =  5.937E-15

     Pert. #  1: Fermi energy shift (Ry) =    -3.3060E-03     2.5244E-28

      iter #  11 total cpu time :  3761.4 secs   av.it.:  17.0
      thresh= 7.705E-09 alpha_mix =  0.700 |ddv_scf|^2 =  3.984E-15

     Pert. #  1: Fermi energy shift (Ry) =    -3.2942E-03     2.5244E-28

      iter #  12 total cpu time :  3785.9 secs   av.it.:  15.7
      thresh= 6.312E-09 alpha_mix =  0.700 |ddv_scf|^2 =  1.854E-15

     Pert. #  1: Fermi energy shift (Ry) =    -3.3136E-03     2.5244E-28

      iter #  13 total cpu time :  3810.8 secs   av.it.:  15.9
      thresh= 4.306E-09 alpha_mix =  0.700 |ddv_scf|^2 =  1.157E-16

     Pert. #  1: Fermi energy shift (Ry) =    -3.3260E-03     2.5244E-28

      iter #  14 total cpu time :  3833.6 secs   av.it.:  16.7
      thresh= 1.076E-09 alpha_mix =  0.700 |ddv_scf|^2 =  1.083E-17

     End of self-consistent calculation

     Convergence has been achieved 


     Representation #   9 mode #   9

     Self-consistent Calculation

     Pert. #  1: Fermi energy shift (Ry) =    -5.2940E-23     7.1746E-43

      iter #   1 total cpu time :  3937.1 secs   av.it.:   5.0
      thresh= 1.000E-02 alpha_mix =  0.700 |ddv_scf|^2 =  3.405E-09

     Pert. #  1: Fermi energy shift (Ry) =    -2.1176E-22    -9.5662E-43

      iter #   2 total cpu time :  3981.0 secs   av.it.:  17.4
      thresh= 5.835E-06 alpha_mix =  0.700 |ddv_scf|^2 =  6.202E-10

     Pert. #  1: Fermi energy shift (Ry) =    -1.4117E-22    -2.8699E-42

      iter #   3 total cpu time :  4040.5 secs   av.it.:  17.1
      thresh= 2.490E-06 alpha_mix =  0.700 |ddv_scf|^2 =  2.446E-12

     Pert. #  1: Fermi energy shift (Ry) =    -4.2352E-22     4.7831E-43

      iter #   4 total cpu time :  4076.9 secs   av.it.:  16.9
      thresh= 1.564E-07 alpha_mix =  0.700 |ddv_scf|^2 =  3.139E-13

     Pert. #  1: Fermi energy shift (Ry) =    -4.2352E-22     1.1958E-43

      iter #   5 total cpu time :  4119.8 secs   av.it.:  16.1
      thresh= 5.603E-08 alpha_mix =  0.700 |ddv_scf|^2 =  1.640E-14

     Pert. #  1: Fermi energy shift (Ry) =    -1.4117E-22     2.3915E-43

      iter #   6 total cpu time :  4149.3 secs   av.it.:  17.0
      thresh= 1.280E-08 alpha_mix =  0.700 |ddv_scf|^2 =  2.308E-16

     Pert. #  1: Fermi energy shift (Ry) =    -1.4117E-22     3.5873E-43

      iter #   7 total cpu time :  4171.8 secs   av.it.:  16.9
      thresh= 1.519E-09 alpha_mix =  0.700 |ddv_scf|^2 =  2.923E-18

     End of self-consistent calculation

     Convergence has been achieved 


     Representation #  10 mode #  10

     Self-consistent Calculation

     Pert. #  1: Fermi energy shift (Ry) =     0.0000E+00    -4.7831E-43

      iter #   1 total cpu time :  4278.0 secs   av.it.:   5.4
      thresh= 1.000E-02 alpha_mix =  0.700 |ddv_scf|^2 =  2.852E-09

     Pert. #  1: Fermi energy shift (Ry) =     0.0000E+00     0.0000E+00

      iter #   2 total cpu time :  4316.4 secs   av.it.:  17.6
      thresh= 5.341E-06 alpha_mix =  0.700 |ddv_scf|^2 =  4.446E-10

     Pert. #  1: Fermi energy shift (Ry) =     1.4117E-22     0.0000E+00

      iter #   3 total cpu time :  4362.7 secs   av.it.:  17.4
      thresh= 2.109E-06 alpha_mix =  0.700 |ddv_scf|^2 =  1.364E-12

     Pert. #  1: Fermi energy shift (Ry) =     0.0000E+00     0.0000E+00

      iter #   4 total cpu time :  4433.8 secs   av.it.:  17.6
      thresh= 1.168E-07 alpha_mix =  0.700 |ddv_scf|^2 =  5.655E-14

     Pert. #  1: Fermi energy shift (Ry) =     0.0000E+00     0.0000E+00

      iter #   5 total cpu time :  4466.9 secs   av.it.:  16.9
      thresh= 2.378E-08 alpha_mix =  0.700 |ddv_scf|^2 =  1.689E-15

     Pert. #  1: Fermi energy shift (Ry) =     0.0000E+00     0.0000E+00

      iter #   6 total cpu time :  4507.5 secs   av.it.:  17.7
      thresh= 4.109E-09 alpha_mix =  0.700 |ddv_scf|^2 =  3.960E-17

     End of self-consistent calculation

     Convergence has been achieved 


     Representation #  11 mode #  11

     Self-consistent Calculation

     Pert. #  1: Fermi energy shift (Ry) =    -7.0586E-23    -5.9789E-44

      iter #   1 total cpu time :  4572.4 secs   av.it.:   7.0
      thresh= 1.000E-02 alpha_mix =  0.700 |ddv_scf|^2 =  1.375E-08

     Pert. #  1: Fermi energy shift (Ry) =     7.0586E-23     7.4736E-45

      iter #   2 total cpu time :  4601.0 secs   av.it.:  17.7
      thresh= 1.173E-05 alpha_mix =  0.700 |ddv_scf|^2 =  2.400E-09

     Pert. #  1: Fermi energy shift (Ry) =     1.4117E-22    -4.7831E-43

      iter #   3 total cpu time :  4649.3 secs   av.it.:  17.3
      thresh= 4.899E-06 alpha_mix =  0.700 |ddv_scf|^2 =  9.873E-12

     Pert. #  1: Fermi energy shift (Ry) =     1.4117E-22    -2.3915E-43

      iter #   4 total cpu time :  4675.0 secs   av.it.:  17.4
      thresh= 3.142E-07 alpha_mix =  0.700 |ddv_scf|^2 =  3.996E-13

     Pert. #  1: Fermi energy shift (Ry) =     1.4117E-22     5.9789E-44

      iter #   5 total cpu time :  4714.8 secs   av.it.:  16.9
      thresh= 6.321E-08 alpha_mix =  0.700 |ddv_scf|^2 =  4.127E-15

     Pert. #  1: Fermi energy shift (Ry) =     1.4117E-22     5.9789E-44

      iter #   6 total cpu time :  4744.1 secs   av.it.:  18.0
      thresh= 6.424E-09 alpha_mix =  0.700 |ddv_scf|^2 =  2.411E-16

     Pert. #  1: Fermi energy shift (Ry) =     1.4117E-22     5.9789E-44

      iter #   7 total cpu time :  4766.0 secs   av.it.:  17.9
      thresh= 1.553E-09 alpha_mix =  0.700 |ddv_scf|^2 =  1.855E-17

     End of self-consistent calculation

     Convergence has been achieved 


     Representation #  12 modes #  12  13

     Self-consistent Calculation

     Pert. #  1: Fermi energy shift (Ry) =    -5.4210E-20    -1.4349E-42
     Pert. #  2: Fermi energy shift (Ry) =     8.1315E-20    -2.3915E-43

      iter #   1 total cpu time :  4869.3 secs   av.it.:   5.0
      thresh= 1.000E-02 alpha_mix =  0.700 |ddv_scf|^2 =  1.009E-09

     Pert. #  1: Fermi energy shift (Ry) =     3.4694E-18     2.3915E-42
     Pert. #  2: Fermi energy shift (Ry) =    -7.2280E-19    -9.5662E-43

      iter #   2 total cpu time :  4945.2 secs   av.it.:  20.1
      thresh= 3.176E-06 alpha_mix =  0.700 |ddv_scf|^2 =  1.101E-08

     Pert. #  1: Fermi energy shift (Ry) =     4.3368E-19     4.5439E-42
     Pert. #  2: Fermi energy shift (Ry) =    -7.2280E-20    -1.4349E-42

      iter #   3 total cpu time :  5031.1 secs   av.it.:  17.6
      thresh= 1.049E-05 alpha_mix =  0.700 |ddv_scf|^2 =  1.397E-09

     Pert. #  1: Fermi energy shift (Ry) =     1.9877E-19    -1.4349E-42
     Pert. #  2: Fermi energy shift (Ry) =    -7.2280E-20     0.0000E+00

      iter #   4 total cpu time :  5093.4 secs   av.it.:  17.7
      thresh= 3.738E-06 alpha_mix =  0.700 |ddv_scf|^2 =  1.329E-11

     Pert. #  1: Fermi energy shift (Ry) =    -6.3245E-20    -7.1746E-43
     Pert. #  2: Fermi energy shift (Ry) =     1.8070E-20    -3.5873E-43

      iter #   5 total cpu time :  5159.2 secs   av.it.:  18.6
      thresh= 3.645E-07 alpha_mix =  0.700 |ddv_scf|^2 =  1.984E-13

     Pert. #  1: Fermi energy shift (Ry) =    -1.8070E-20     2.3915E-43
     Pert. #  2: Fermi energy shift (Ry) =    -1.3553E-20     2.3915E-43

      iter #   6 total cpu time :  5207.6 secs   av.it.:  18.9
      thresh= 4.454E-08 alpha_mix =  0.700 |ddv_scf|^2 =  6.163E-14

     Pert. #  1: Fermi energy shift (Ry) =    -3.6140E-20    -1.1958E-43
     Pert. #  2: Fermi energy shift (Ry) =    -7.2280E-20    -1.1958E-43

      iter #   7 total cpu time :  5245.4 secs   av.it.:  18.9
      thresh= 2.483E-08 alpha_mix =  0.700 |ddv_scf|^2 =  7.398E-15

     Pert. #  1: Fermi energy shift (Ry) =     3.6140E-20     2.3915E-43
     Pert. #  2: Fermi energy shift (Ry) =     1.1746E-19     2.3915E-43

      iter #   8 total cpu time :  5283.5 secs   av.it.:  18.6
      thresh= 8.601E-09 alpha_mix =  0.700 |ddv_scf|^2 =  3.960E-16

     Pert. #  1: Fermi energy shift (Ry) =    -1.8070E-20    -1.1958E-43
     Pert. #  2: Fermi energy shift (Ry) =     9.0350E-21    -1.1958E-43

      iter #   9 total cpu time :  5319.0 secs   av.it.:  18.9
      thresh= 1.990E-09 alpha_mix =  0.700 |ddv_scf|^2 =  7.430E-17

     End of self-consistent calculation

     Convergence has been achieved 


     Representation #  13 modes #  14  15

     Self-consistent Calculation

     Pert. #  1: Fermi energy shift (Ry) =     4.3368E-19    -1.7937E-43
     Pert. #  2: Fermi energy shift (Ry) =     2.5298E-19    -2.3915E-43

      iter #   1 total cpu time :  5518.1 secs   av.it.:   7.9
      thresh= 1.000E-02 alpha_mix =  0.700 |ddv_scf|^2 =  1.971E-08

     Pert. #  1: Fermi energy shift (Ry) =     4.3368E-18    -1.9132E-42
     Pert. #  2: Fermi energy shift (Ry) =     1.5902E-18     1.4349E-42

      iter #   2 total cpu time :  5601.7 secs   av.it.:  19.7
      thresh= 1.404E-05 alpha_mix =  0.700 |ddv_scf|^2 =  3.649E-08

     Pert. #  1: Fermi energy shift (Ry) =     1.1565E-18    -2.8699E-42
     Pert. #  2: Fermi energy shift (Ry) =    -3.4694E-18    -2.8699E-42

      iter #   3 total cpu time :  5719.2 secs   av.it.:  18.9
      thresh= 1.910E-05 alpha_mix =  0.700 |ddv_scf|^2 =  5.481E-08

     Pert. #  1: Fermi energy shift (Ry) =    -1.1565E-18    -4.4842E-43
     Pert. #  2: Fermi energy shift (Ry) =     1.8070E-19     3.5873E-43

      iter #   4 total cpu time :  5783.0 secs   av.it.:  16.9
      thresh= 2.341E-05 alpha_mix =  0.700 |ddv_scf|^2 =  1.447E-10

     Pert. #  1: Fermi energy shift (Ry) =     1.8070E-19     0.0000E+00
     Pert. #  2: Fermi energy shift (Ry) =     3.9754E-19     1.4947E-44

      iter #   5 total cpu time :  5867.8 secs   av.it.:  18.9
      thresh= 1.203E-06 alpha_mix =  0.700 |ddv_scf|^2 =  2.511E-12

     Pert. #  1: Fermi energy shift (Ry) =    -4.6982E-19     1.4947E-44
     Pert. #  2: Fermi energy shift (Ry) =     3.6140E-19     3.7368E-45

      iter #   6 total cpu time :  5927.6 secs   av.it.:  18.9
      thresh= 1.585E-07 alpha_mix =  0.700 |ddv_scf|^2 =  9.827E-14

     Pert. #  1: Fermi energy shift (Ry) =     1.0842E-19     1.1210E-44
     Pert. #  2: Fermi energy shift (Ry) =     2.7105E-19    -7.4736E-45

      iter #   7 total cpu time :  6001.1 secs   av.it.:  19.1
      thresh= 3.135E-08 alpha_mix =  0.700 |ddv_scf|^2 =  1.257E-14

     Pert. #  1: Fermi energy shift (Ry) =    -7.2280E-20     2.2421E-44
     Pert. #  2: Fermi energy shift (Ry) =     2.3491E-19    -1.8684E-45

      iter #   8 total cpu time :  6046.3 secs   av.it.:  19.3
      thresh= 1.121E-08 alpha_mix =  0.700 |ddv_scf|^2 =  2.326E-15

     Pert. #  1: Fermi energy shift (Ry) =     3.6140E-20    -3.7368E-45
     Pert. #  2: Fermi energy shift (Ry) =     1.9877E-19     3.7368E-45

      iter #   9 total cpu time :  6096.5 secs   av.it.:  18.9
      thresh= 4.823E-09 alpha_mix =  0.700 |ddv_scf|^2 =  7.270E-16

     Pert. #  1: Fermi energy shift (Ry) =     0.0000E+00     1.4947E-44
     Pert. #  2: Fermi energy shift (Ry) =     3.0719E-19    -5.6052E-45

      iter #  10 total cpu time :  6139.0 secs   av.it.:  18.9
      thresh= 2.696E-09 alpha_mix =  0.700 |ddv_scf|^2 =  2.238E-15

     Pert. #  1: Fermi energy shift (Ry) =    -1.8070E-19     1.4947E-44
     Pert. #  2: Fermi energy shift (Ry) =     4.3368E-19    -5.6052E-45

      iter #  11 total cpu time :  6193.1 secs   av.it.:  17.6
      thresh= 4.730E-09 alpha_mix =  0.700 |ddv_scf|^2 =  2.917E-17

     End of self-consistent calculation

     Convergence has been achieved 


     Representation #  14 modes #  16  17

     Self-consistent Calculation

     Pert. #  1: Fermi energy shift (Ry) =     2.8912E-19     1.1958E-43
     Pert. #  2: Fermi energy shift (Ry) =     9.3964E-19     1.1958E-43

      iter #   1 total cpu time :  6429.2 secs   av.it.:   6.0
      thresh= 1.000E-02 alpha_mix =  0.700 |ddv_scf|^2 =  6.058E-09

     Pert. #  1: Fermi energy shift (Ry) =    -4.0477E-18     4.7831E-43
     Pert. #  2: Fermi energy shift (Ry) =    -6.9389E-18     0.0000E+00

      iter #   2 total cpu time :  6476.3 secs   av.it.:  19.9
      thresh= 7.783E-06 alpha_mix =  0.700 |ddv_scf|^2 =  9.415E-08

     Pert. #  1: Fermi energy shift (Ry) =     1.3010E-18    -4.7831E-43
     Pert. #  2: Fermi energy shift (Ry) =     1.1565E-18     2.3915E-43

      iter #   3 total cpu time :  6548.8 secs   av.it.:  17.1
      thresh= 3.068E-05 alpha_mix =  0.700 |ddv_scf|^2 =  6.943E-09

     Pert. #  1: Fermi energy shift (Ry) =    -1.9877E-19     5.9789E-44
     Pert. #  2: Fermi energy shift (Ry) =     1.8070E-20    -2.0926E-43

      iter #   4 total cpu time :  6627.9 secs   av.it.:  17.6
      thresh= 8.332E-06 alpha_mix =  0.700 |ddv_scf|^2 =  2.660E-11

     Pert. #  1: Fermi energy shift (Ry) =     1.8070E-19     0.0000E+00
     Pert. #  2: Fermi energy shift (Ry) =    -1.0842E-19     4.4842E-44

      iter #   5 total cpu time :  6718.8 secs   av.it.:  18.9
      thresh= 5.157E-07 alpha_mix =  0.700 |ddv_scf|^2 =  1.847E-12

     Pert. #  1: Fermi energy shift (Ry) =     0.0000E+00    -2.9894E-44
     Pert. #  2: Fermi energy shift (Ry) =    -1.8070E-19    -4.4842E-44

      iter #   6 total cpu time :  6773.9 secs   av.it.:  18.7
      thresh= 1.359E-07 alpha_mix =  0.700 |ddv_scf|^2 =  3.414E-14

     Pert. #  1: Fermi energy shift (Ry) =    -3.9754E-19     2.9894E-44
     Pert. #  2: Fermi energy shift (Ry) =    -2.1684E-19     0.0000E+00

      iter #   7 total cpu time :  6810.9 secs   av.it.:  18.9
      thresh= 1.848E-08 alpha_mix =  0.700 |ddv_scf|^2 =  7.996E-15

     Pert. #  1: Fermi energy shift (Ry) =    -1.8070E-19     7.4736E-44
     Pert. #  2: Fermi energy shift (Ry) =    -3.6140E-20    -7.4736E-44

      iter #   8 total cpu time :  6851.7 secs   av.it.:  19.1
      thresh= 8.942E-09 alpha_mix =  0.700 |ddv_scf|^2 =  6.851E-15

     Pert. #  1: Fermi energy shift (Ry) =    -3.2526E-19     0.0000E+00
     Pert. #  2: Fermi energy shift (Ry) =     0.0000E+00     4.4842E-44

      iter #   9 total cpu time :  6885.2 secs   av.it.:  17.9
      thresh= 8.277E-09 alpha_mix =  0.700 |ddv_scf|^2 =  8.483E-17

     End of self-consistent calculation

     Convergence has been achieved 


     Representation #  15 modes #  18  19

     Self-consistent Calculation

     Pert. #  1: Fermi energy shift (Ry) =    -1.3010E-18     6.7262E-44
     Pert. #  2: Fermi energy shift (Ry) =     2.8912E-19     7.4736E-44

      iter #   1 total cpu time :  7031.3 secs   av.it.:   6.0
      thresh= 1.000E-02 alpha_mix =  0.700 |ddv_scf|^2 =  8.438E-09

     Pert. #  1: Fermi energy shift (Ry) =     8.0954E-18    -1.9132E-42
     Pert. #  2: Fermi energy shift (Ry) =     8.6736E-18    -2.6307E-42

      iter #   2 total cpu time :  7077.5 secs   av.it.:  20.0
      thresh= 9.186E-06 alpha_mix =  0.700 |ddv_scf|^2 =  1.774E-07

     Pert. #  1: Fermi energy shift (Ry) =    -8.6736E-19    -3.8265E-42
     Pert. #  2: Fermi energy shift (Ry) =     4.3368E-19    -5.7397E-42

      iter #   3 total cpu time :  7133.6 secs   av.it.:  16.9
      thresh= 4.212E-05 alpha_mix =  0.700 |ddv_scf|^2 =  4.642E-09

     Pert. #  1: Fermi energy shift (Ry) =    -2.2588E-20    -5.3810E-43
     Pert. #  2: Fermi energy shift (Ry) =    -4.5175E-21    -1.1958E-43

      iter #   4 total cpu time :  7209.6 secs   av.it.:  17.7
      thresh= 6.813E-06 alpha_mix =  0.700 |ddv_scf|^2 =  2.337E-11

     Pert. #  1: Fermi energy shift (Ry) =     3.6140E-20    -8.9683E-44
     Pert. #  2: Fermi energy shift (Ry) =     3.3881E-20    -1.4947E-44

      iter #   5 total cpu time :  7270.4 secs   av.it.:  18.7
      thresh= 4.834E-07 alpha_mix =  0.700 |ddv_scf|^2 =  1.947E-12

     Pert. #  1: Fermi energy shift (Ry) =     4.2352E-22    -3.3631E-44
     Pert. #  2: Fermi energy shift (Ry) =     4.9410E-22    -3.7368E-44

      iter #   6 total cpu time :  7319.5 secs   av.it.:  18.6
      thresh= 1.395E-07 alpha_mix =  0.700 |ddv_scf|^2 =  4.764E-13

     Pert. #  1: Fermi energy shift (Ry) =     9.0350E-21    -1.1210E-44
     Pert. #  2: Fermi energy shift (Ry) =     1.0164E-20    -3.7368E-45

      iter #   7 total cpu time :  7359.6 secs   av.it.:  18.6
      thresh= 6.903E-08 alpha_mix =  0.700 |ddv_scf|^2 =  5.916E-14

     Pert. #  1: Fermi energy shift (Ry) =     1.8070E-20    -2.2421E-44
     Pert. #  2: Fermi energy shift (Ry) =     5.6469E-21    -7.4736E-45

      iter #   8 total cpu time :  7402.6 secs   av.it.:  19.4
      thresh= 2.432E-08 alpha_mix =  0.700 |ddv_scf|^2 =  7.615E-15

     Pert. #  1: Fermi energy shift (Ry) =     1.1294E-20    -2.2421E-44
     Pert. #  2: Fermi energy shift (Ry) =     4.5175E-21    -7.4736E-45

      iter #   9 total cpu time :  7442.0 secs   av.it.:  18.6
      thresh= 8.726E-09 alpha_mix =  0.700 |ddv_scf|^2 =  2.518E-16

     Pert. #  1: Fermi energy shift (Ry) =     0.0000E+00    -1.1210E-44
     Pert. #  2: Fermi energy shift (Ry) =     5.6469E-21    -3.7368E-45

      iter #  10 total cpu time :  7506.4 secs   av.it.:  18.5
      thresh= 1.587E-09 alpha_mix =  0.700 |ddv_scf|^2 =  8.357E-17

     End of self-consistent calculation

     Convergence has been achieved 


     Representation #  16 modes #  20  21

     Self-consistent Calculation

     Pert. #  1: Fermi energy shift (Ry) =    -1.7347E-18     3.1763E-44
     Pert. #  2: Fermi energy shift (Ry) =     1.3010E-18     1.6816E-44

      iter #   1 total cpu time :  7638.2 secs   av.it.:   7.6
      thresh= 1.000E-02 alpha_mix =  0.700 |ddv_scf|^2 =  1.107E-08

     Pert. #  1: Fermi energy shift (Ry) =     7.5171E-18     1.1958E-43
     Pert. #  2: Fermi energy shift (Ry) =    -5.4933E-18    -2.6905E-43

      iter #   2 total cpu time :  7709.9 secs   av.it.:  19.9
      thresh= 1.052E-05 alpha_mix =  0.700 |ddv_scf|^2 =  5.783E-08

     Pert. #  1: Fermi energy shift (Ry) =    -4.6259E-18     4.7831E-43
     Pert. #  2: Fermi energy shift (Ry) =     2.8912E-18    -1.0762E-42

      iter #   3 total cpu time :  7759.3 secs   av.it.:  17.9
      thresh= 2.405E-05 alpha_mix =  0.700 |ddv_scf|^2 =  3.849E-08

     Pert. #  1: Fermi energy shift (Ry) =    -5.4210E-20    -2.8400E-43
     Pert. #  2: Fermi energy shift (Ry) =     3.6140E-20     5.8294E-43

      iter #   4 total cpu time :  7819.8 secs   av.it.:  17.2
      thresh= 1.962E-05 alpha_mix =  0.700 |ddv_scf|^2 =  5.611E-11

     Pert. #  1: Fermi energy shift (Ry) =    -1.0842E-19    -3.3631E-44
     Pert. #  2: Fermi energy shift (Ry) =     1.1746E-19    -1.1210E-44

      iter #   5 total cpu time :  7867.0 secs   av.it.:  18.9
      thresh= 7.491E-07 alpha_mix =  0.700 |ddv_scf|^2 =  4.812E-12

     Pert. #  1: Fermi energy shift (Ry) =    -7.2280E-20     3.3631E-44
     Pert. #  2: Fermi energy shift (Ry) =     6.3245E-20    -1.1210E-44

      iter #   6 total cpu time :  7910.8 secs   av.it.:  18.9
      thresh= 2.194E-07 alpha_mix =  0.700 |ddv_scf|^2 =  1.499E-13

     Pert. #  1: Fermi energy shift (Ry) =    -9.0350E-20     3.3631E-44
     Pert. #  2: Fermi energy shift (Ry) =     2.7105E-20    -1.1210E-44

      iter #   7 total cpu time :  7953.0 secs   av.it.:  19.1
      thresh= 3.872E-08 alpha_mix =  0.700 |ddv_scf|^2 =  1.930E-14

     Pert. #  1: Fermi energy shift (Ry) =    -1.4456E-19     3.3631E-44
     Pert. #  2: Fermi energy shift (Ry) =    -4.5175E-20    -1.1210E-44

      iter #   8 total cpu time :  7999.8 secs   av.it.:  19.6
      thresh= 1.389E-08 alpha_mix =  0.700 |ddv_scf|^2 =  3.412E-15

     Pert. #  1: Fermi energy shift (Ry) =    -2.3491E-19     4.6710E-44
     Pert. #  2: Fermi energy shift (Ry) =    -2.7105E-20    -3.1763E-44

      iter #   9 total cpu time :  8038.7 secs   av.it.:  19.6
      thresh= 5.841E-09 alpha_mix =  0.700 |ddv_scf|^2 =  4.412E-15

     Pert. #  1: Fermi energy shift (Ry) =     3.6140E-20     4.6710E-44
     Pert. #  2: Fermi energy shift (Ry) =     1.3553E-19    -3.1763E-44

      iter #  10 total cpu time :  8078.7 secs   av.it.:  17.7
      thresh= 6.642E-09 alpha_mix =  0.700 |ddv_scf|^2 =  9.290E-16

     Pert. #  1: Fermi energy shift (Ry) =    -1.8070E-20     4.6710E-44
     Pert. #  2: Fermi energy shift (Ry) =     2.7105E-20    -3.1763E-44

      iter #  11 total cpu time :  8116.3 secs   av.it.:  17.9
      thresh= 3.048E-09 alpha_mix =  0.700 |ddv_scf|^2 =  2.082E-17

     End of self-consistent calculation

     Convergence has been achieved 


     Representation #  17 modes #  22  23

     Self-consistent Calculation

     Pert. #  1: Fermi energy shift (Ry) =     1.7347E-18     0.0000E+00
     Pert. #  2: Fermi energy shift (Ry) =    -1.3733E-18    -3.2884E-43

      iter #   1 total cpu time :  8249.7 secs   av.it.:   6.0
      thresh= 1.000E-02 alpha_mix =  0.700 |ddv_scf|^2 =  3.381E-09

     Pert. #  1: Fermi energy shift (Ry) =    -3.4694E-18    -4.7831E-43
     Pert. #  2: Fermi energy shift (Ry) =     2.8912E-18     5.7397E-42

      iter #   2 total cpu time :  8305.5 secs   av.it.:  20.2
      thresh= 5.814E-06 alpha_mix =  0.700 |ddv_scf|^2 =  5.479E-08

     Pert. #  1: Fermi energy shift (Ry) =     2.4575E-18    -4.7831E-43
     Pert. #  2: Fermi energy shift (Ry) =     5.7824E-19     4.7831E-43

      iter #   3 total cpu time :  8360.0 secs   av.it.:  17.0
      thresh= 2.341E-05 alpha_mix =  0.700 |ddv_scf|^2 =  2.809E-09

     Pert. #  1: Fermi energy shift (Ry) =     2.5298E-19     1.1958E-43
     Pert. #  2: Fermi energy shift (Ry) =     1.0842E-19    -2.3915E-43

      iter #   4 total cpu time :  8412.6 secs   av.it.:  17.7
      thresh= 5.300E-06 alpha_mix =  0.700 |ddv_scf|^2 =  2.017E-11

     Pert. #  1: Fermi energy shift (Ry) =     2.5298E-19     2.9894E-44
     Pert. #  2: Fermi energy shift (Ry) =    -3.6140E-20    -5.9789E-44

      iter #   5 total cpu time :  8521.7 secs   av.it.:  18.7
      thresh= 4.491E-07 alpha_mix =  0.700 |ddv_scf|^2 =  6.674E-13

     Pert. #  1: Fermi energy shift (Ry) =     2.5298E-19    -8.9683E-44
     Pert. #  2: Fermi energy shift (Ry) =    -1.4456E-19    -5.9789E-44

      iter #   6 total cpu time :  8566.7 secs   av.it.:  18.7
      thresh= 8.170E-08 alpha_mix =  0.700 |ddv_scf|^2 =  5.992E-14

     Pert. #  1: Fermi energy shift (Ry) =     3.6140E-20     2.0926E-43
     Pert. #  2: Fermi energy shift (Ry) =    -9.0350E-20    -5.9789E-44

      iter #   7 total cpu time :  8607.4 secs   av.it.:  19.1
      thresh= 2.448E-08 alpha_mix =  0.700 |ddv_scf|^2 =  1.735E-14

     Pert. #  1: Fermi energy shift (Ry) =     7.2280E-20     2.0926E-43
     Pert. #  2: Fermi energy shift (Ry) =     0.0000E+00    -5.9789E-44

      iter #   8 total cpu time :  8650.2 secs   av.it.:  18.7
      thresh= 1.317E-08 alpha_mix =  0.700 |ddv_scf|^2 =  1.420E-15

     Pert. #  1: Fermi energy shift (Ry) =     1.0842E-19     2.0926E-43
     Pert. #  2: Fermi energy shift (Ry) =    -7.2280E-20    -5.9789E-44

      iter #   9 total cpu time :  8700.8 secs   av.it.:  19.2
      thresh= 3.768E-09 alpha_mix =  0.700 |ddv_scf|^2 =  1.392E-15

     Pert. #  1: Fermi energy shift (Ry) =     3.6140E-20     2.0926E-43
     Pert. #  2: Fermi energy shift (Ry) =     7.2280E-20    -5.9789E-44

      iter #  10 total cpu time :  8749.3 secs   av.it.:  18.3
      thresh= 3.731E-09 alpha_mix =  0.700 |ddv_scf|^2 =  7.403E-16

     Pert. #  1: Fermi energy shift (Ry) =     1.4456E-19     2.0926E-43
     Pert. #  2: Fermi energy shift (Ry) =    -7.2280E-20    -5.9789E-44

      iter #  11 total cpu time :  8813.5 secs   av.it.:  17.9
      thresh= 2.721E-09 alpha_mix =  0.700 |ddv_scf|^2 =  5.267E-17

     End of self-consistent calculation

     Convergence has been achieved 


     Representation #  18 modes #  24  25

     Self-consistent Calculation

     Pert. #  1: Fermi energy shift (Ry) =    -2.8912E-19     1.1958E-43
     Pert. #  2: Fermi energy shift (Ry) =    -5.0596E-19     4.4842E-44

      iter #   1 total cpu time :  8927.2 secs   av.it.:   6.0
      thresh= 1.000E-02 alpha_mix =  0.700 |ddv_scf|^2 =  8.926E-09

     Pert. #  1: Fermi energy shift (Ry) =     9.2519E-18     1.9132E-42
     Pert. #  2: Fermi energy shift (Ry) =    -1.7347E-18     0.0000E+00

      iter #   2 total cpu time :  8985.2 secs   av.it.:  19.9
      thresh= 9.448E-06 alpha_mix =  0.700 |ddv_scf|^2 =  1.679E-07

     Pert. #  1: Fermi energy shift (Ry) =     5.7824E-19     9.5662E-42
     Pert. #  2: Fermi energy shift (Ry) =    -1.4456E-19    -1.9132E-42

      iter #   3 total cpu time :  9070.5 secs   av.it.:  16.9
      thresh= 4.098E-05 alpha_mix =  0.700 |ddv_scf|^2 =  7.226E-09

     Pert. #  1: Fermi energy shift (Ry) =     3.6140E-20    -5.2614E-42
     Pert. #  2: Fermi energy shift (Ry) =    -6.3245E-20     7.1746E-43

      iter #   4 total cpu time :  9152.6 secs   av.it.:  17.6
      thresh= 8.501E-06 alpha_mix =  0.700 |ddv_scf|^2 =  4.121E-11

     Pert. #  1: Fermi energy shift (Ry) =    -4.9693E-20    -3.7368E-45
     Pert. #  2: Fermi energy shift (Ry) =    -6.7763E-21    -1.4947E-44

      iter #   5 total cpu time :  9214.9 secs   av.it.:  18.7
      thresh= 6.419E-07 alpha_mix =  0.700 |ddv_scf|^2 =  2.863E-12

     Pert. #  1: Fermi energy shift (Ry) =     5.6469E-21     5.9789E-44
     Pert. #  2: Fermi energy shift (Ry) =     3.3881E-21     8.9683E-44

      iter #   6 total cpu time :  9266.6 secs   av.it.:  18.6
      thresh= 1.692E-07 alpha_mix =  0.700 |ddv_scf|^2 =  5.076E-14

     Pert. #  1: Fermi energy shift (Ry) =     3.3881E-21     5.9789E-44
     Pert. #  2: Fermi energy shift (Ry) =    -1.9764E-21    -1.4947E-44

      iter #   7 total cpu time :  9306.9 secs   av.it.:  18.9
      thresh= 2.253E-08 alpha_mix =  0.700 |ddv_scf|^2 =  1.433E-14

     Pert. #  1: Fermi energy shift (Ry) =    -4.5175E-21     0.0000E+00
     Pert. #  2: Fermi energy shift (Ry) =     2.8234E-21    -1.4947E-44

      iter #   8 total cpu time :  9355.7 secs   av.it.:  18.9
      thresh= 1.197E-08 alpha_mix =  0.700 |ddv_scf|^2 =  6.836E-15

     Pert. #  1: Fermi energy shift (Ry) =     0.0000E+00    -2.9894E-44
     Pert. #  2: Fermi energy shift (Ry) =    -1.6941E-21     8.2210E-44

      iter #   9 total cpu time :  9400.0 secs   av.it.:  17.9
      thresh= 8.268E-09 alpha_mix =  0.700 |ddv_scf|^2 =  2.720E-16

     Pert. #  1: Fermi energy shift (Ry) =     6.7763E-21     0.0000E+00
     Pert. #  2: Fermi energy shift (Ry) =    -3.3881E-21    -1.4947E-44

      iter #  10 total cpu time :  9453.6 secs   av.it.:  18.9
      thresh= 1.649E-09 alpha_mix =  0.700 |ddv_scf|^2 =  1.311E-16

     Pert. #  1: Fermi energy shift (Ry) =    -5.6469E-22     0.0000E+00
     Pert. #  2: Fermi energy shift (Ry) =    -5.6469E-22    -1.4947E-44

      iter #  11 total cpu time :  9520.5 secs   av.it.:  18.7
      thresh= 1.145E-09 alpha_mix =  0.700 |ddv_scf|^2 =  9.505E-17

     End of self-consistent calculation

     Convergence has been achieved 


     Representation #  19 modes #  26  27

     Self-consistent Calculation

     Pert. #  1: Fermi energy shift (Ry) =    -7.2280E-19     1.4947E-44
     Pert. #  2: Fermi energy shift (Ry) =     2.1684E-19     7.4736E-45

      iter #   1 total cpu time :  9640.0 secs   av.it.:   6.0
      thresh= 1.000E-02 alpha_mix =  0.700 |ddv_scf|^2 =  7.463E-09

     Pert. #  1: Fermi energy shift (Ry) =     6.9389E-18     2.3915E-43
     Pert. #  2: Fermi energy shift (Ry) =    -3.4694E-18     5.9789E-44

      iter #   2 total cpu time :  9692.2 secs   av.it.:  20.4
      thresh= 8.639E-06 alpha_mix =  0.700 |ddv_scf|^2 =  1.736E-07

     Pert. #  1: Fermi energy shift (Ry) =    -1.0119E-18    -1.7937E-43
     Pert. #  2: Fermi energy shift (Ry) =    -5.7824E-19    -2.6905E-43

      iter #   3 total cpu time :  9740.3 secs   av.it.:  16.9
      thresh= 4.166E-05 alpha_mix =  0.700 |ddv_scf|^2 =  2.615E-09

     Pert. #  1: Fermi energy shift (Ry) =     7.2280E-20     2.6158E-44
     Pert. #  2: Fermi energy shift (Ry) =     4.0658E-20     1.3079E-44

      iter #   4 total cpu time :  9835.3 secs   av.it.:  17.9
      thresh= 5.114E-06 alpha_mix =  0.700 |ddv_scf|^2 =  3.446E-12

     Pert. #  1: Fermi energy shift (Ry) =     1.8070E-20    -5.6052E-45
     Pert. #  2: Fermi energy shift (Ry) =     4.5175E-21     0.0000E+00

      iter #   5 total cpu time :  9887.2 secs   av.it.:  19.4
      thresh= 1.856E-07 alpha_mix =  0.700 |ddv_scf|^2 =  4.526E-13

     Pert. #  1: Fermi energy shift (Ry) =     1.8070E-20    -1.4947E-44
     Pert. #  2: Fermi energy shift (Ry) =     3.6140E-20    -1.3079E-44

      iter #   6 total cpu time :  9927.4 secs   av.it.:  18.9
      thresh= 6.728E-08 alpha_mix =  0.700 |ddv_scf|^2 =  4.478E-14

     Pert. #  1: Fermi energy shift (Ry) =     8.1315E-20    -7.4736E-45
     Pert. #  2: Fermi energy shift (Ry) =     9.0350E-21    -3.7368E-45

      iter #   7 total cpu time :  9971.3 secs   av.it.:  18.9
      thresh= 2.116E-08 alpha_mix =  0.700 |ddv_scf|^2 =  5.675E-15

     Pert. #  1: Fermi energy shift (Ry) =     1.4456E-19    -7.4736E-45
     Pert. #  2: Fermi energy shift (Ry) =    -1.3553E-20    -3.7368E-45

      iter #   8 total cpu time : 10020.6 secs   av.it.:  18.9
      thresh= 7.533E-09 alpha_mix =  0.700 |ddv_scf|^2 =  1.047E-15

     Pert. #  1: Fermi energy shift (Ry) =     1.2649E-19    -7.4736E-45
     Pert. #  2: Fermi energy shift (Ry) =     0.0000E+00    -3.7368E-45

      iter #   9 total cpu time : 10059.9 secs   av.it.:  19.3
      thresh= 3.236E-09 alpha_mix =  0.700 |ddv_scf|^2 =  1.184E-15

     Pert. #  1: Fermi energy shift (Ry) =    -9.0350E-21     3.7368E-45
     Pert. #  2: Fermi energy shift (Ry) =    -4.5175E-21    -7.4736E-45

      iter #  10 total cpu time : 10098.7 secs   av.it.:  17.9
      thresh= 3.441E-09 alpha_mix =  0.700 |ddv_scf|^2 =  4.750E-16

     Pert. #  1: Fermi energy shift (Ry) =     0.0000E+00    -7.4736E-45
     Pert. #  2: Fermi energy shift (Ry) =     4.9693E-20    -3.7368E-45

      iter #  11 total cpu time : 10135.2 secs   av.it.:  17.9
      thresh= 2.179E-09 alpha_mix =  0.700 |ddv_scf|^2 =  3.604E-18

     End of self-consistent calculation

     Convergence has been achieved 


     Representation #  20 modes #  28  29

     Self-consistent Calculation

     Pert. #  1: Fermi energy shift (Ry) =    -2.8912E-19     2.9894E-44
     Pert. #  2: Fermi energy shift (Ry) =    -2.8912E-19    -2.9894E-43

      iter #   1 total cpu time : 10353.2 secs   av.it.:   7.7
      thresh= 1.000E-02 alpha_mix =  0.700 |ddv_scf|^2 =  1.588E-08

     Pert. #  1: Fermi energy shift (Ry) =    -2.3130E-18     9.5662E-43
     Pert. #  2: Fermi energy shift (Ry) =     9.2519E-18     5.7397E-42

      iter #   2 total cpu time : 10403.3 secs   av.it.:  20.6
      thresh= 1.260E-05 alpha_mix =  0.700 |ddv_scf|^2 =  3.280E-07

     Pert. #  1: Fermi energy shift (Ry) =    -2.8912E-19     0.0000E+00
     Pert. #  2: Fermi energy shift (Ry) =    -2.8912E-18     3.8265E-42

      iter #   3 total cpu time : 10484.9 secs   av.it.:  16.9
      thresh= 5.728E-05 alpha_mix =  0.700 |ddv_scf|^2 =  7.954E-09

     Pert. #  1: Fermi energy shift (Ry) =    -7.2280E-20     0.0000E+00
     Pert. #  2: Fermi energy shift (Ry) =     1.8070E-19    -5.9789E-44

      iter #   4 total cpu time : 10589.2 secs   av.it.:  18.0
      thresh= 8.918E-06 alpha_mix =  0.700 |ddv_scf|^2 =  6.729E-11

     Pert. #  1: Fermi energy shift (Ry) =    -3.6140E-20     7.4736E-45
     Pert. #  2: Fermi energy shift (Ry) =    -4.5175E-20    -4.1105E-44

      iter #   5 total cpu time : 10636.9 secs   av.it.:  18.7
      thresh= 8.203E-07 alpha_mix =  0.700 |ddv_scf|^2 =  4.415E-12

     Pert. #  1: Fermi energy shift (Ry) =     9.0350E-21     2.9894E-44
     Pert. #  2: Fermi energy shift (Ry) =     7.2280E-20    -1.6442E-43

      iter #   6 total cpu time : 10686.1 secs   av.it.:  18.6
      thresh= 2.101E-07 alpha_mix =  0.700 |ddv_scf|^2 =  2.695E-13

     Pert. #  1: Fermi energy shift (Ry) =     0.0000E+00     2.9894E-44
     Pert. #  2: Fermi energy shift (Ry) =     4.9693E-20    -1.6442E-43

      iter #   7 total cpu time : 10734.8 secs   av.it.:  18.7
      thresh= 5.191E-08 alpha_mix =  0.700 |ddv_scf|^2 =  2.090E-14

     Pert. #  1: Fermi energy shift (Ry) =    -2.7105E-20     2.9894E-44
     Pert. #  2: Fermi energy shift (Ry) =     1.3553E-20    -1.4947E-43

      iter #   8 total cpu time : 10779.7 secs   av.it.:  18.9
      thresh= 1.446E-08 alpha_mix =  0.700 |ddv_scf|^2 =  3.064E-15

     Pert. #  1: Fermi energy shift (Ry) =     9.0350E-21     2.9894E-44
     Pert. #  2: Fermi energy shift (Ry) =    -6.7763E-20    -1.4947E-43

      iter #   9 total cpu time : 10815.4 secs   av.it.:  19.5
      thresh= 5.536E-09 alpha_mix =  0.700 |ddv_scf|^2 =  1.334E-16

     Pert. #  1: Fermi energy shift (Ry) =     9.0350E-21     2.9894E-44
     Pert. #  2: Fermi energy shift (Ry) =     4.5175E-21    -1.4947E-43

      iter #  10 total cpu time : 10859.7 secs   av.it.:  19.6
      thresh= 1.155E-09 alpha_mix =  0.700 |ddv_scf|^2 =  2.485E-17

     End of self-consistent calculation

     Convergence has been achieved 


     Representation #  21 modes #  30  31

     Self-consistent Calculation

     Pert. #  1: Fermi energy shift (Ry) =     5.7824E-19    -1.1958E-43
     Pert. #  2: Fermi energy shift (Ry) =    -7.2280E-20    -2.9894E-43

      iter #   1 total cpu time : 10962.3 secs   av.it.:   6.0
      thresh= 1.000E-02 alpha_mix =  0.700 |ddv_scf|^2 =  5.904E-09

     Pert. #  1: Fermi energy shift (Ry) =    -4.6259E-18    -6.6963E-42
     Pert. #  2: Fermi energy shift (Ry) =     4.6259E-18     4.7831E-42

      iter #   2 total cpu time : 11032.0 secs   av.it.:  20.0
      thresh= 7.684E-06 alpha_mix =  0.700 |ddv_scf|^2 =  1.133E-07

     Pert. #  1: Fermi energy shift (Ry) =    -2.8912E-19     1.9132E-42
     Pert. #  2: Fermi energy shift (Ry) =     2.7466E-18     1.2436E-41

      iter #   3 total cpu time : 11074.6 secs   av.it.:  16.9
      thresh= 3.365E-05 alpha_mix =  0.700 |ddv_scf|^2 =  4.225E-09

     Pert. #  1: Fermi energy shift (Ry) =     2.2588E-21     2.3915E-43
     Pert. #  2: Fermi energy shift (Ry) =     2.2588E-21     1.4349E-42

      iter #   4 total cpu time : 11138.6 secs   av.it.:  17.7
      thresh= 6.500E-06 alpha_mix =  0.700 |ddv_scf|^2 =  2.075E-11

     Pert. #  1: Fermi energy shift (Ry) =     5.4210E-20     0.0000E+00
     Pert. #  2: Fermi energy shift (Ry) =    -5.4210E-20    -3.7368E-44

      iter #   5 total cpu time : 11184.2 secs   av.it.:  19.1
      thresh= 4.555E-07 alpha_mix =  0.700 |ddv_scf|^2 =  2.050E-12

     Pert. #  1: Fermi energy shift (Ry) =     1.8070E-20     0.0000E+00
     Pert. #  2: Fermi energy shift (Ry) =    -6.3245E-20     7.4736E-44

      iter #   6 total cpu time : 11220.9 secs   av.it.:  18.6
      thresh= 1.432E-07 alpha_mix =  0.700 |ddv_scf|^2 =  4.201E-14

     Pert. #  1: Fermi energy shift (Ry) =    -1.8070E-20     1.4947E-44
     Pert. #  2: Fermi energy shift (Ry) =    -5.4210E-20     3.7368E-45

      iter #   7 total cpu time : 11279.7 secs   av.it.:  18.5
      thresh= 2.050E-08 alpha_mix =  0.700 |ddv_scf|^2 =  9.398E-15

     Pert. #  1: Fermi energy shift (Ry) =     1.8070E-20    -1.4947E-44
     Pert. #  2: Fermi energy shift (Ry) =     1.8070E-20     4.4842E-44

      iter #   8 total cpu time : 11326.7 secs   av.it.:  18.9
      thresh= 9.694E-09 alpha_mix =  0.700 |ddv_scf|^2 =  4.797E-15

     Pert. #  1: Fermi energy shift (Ry) =    -1.8070E-20    -3.7368E-44
     Pert. #  2: Fermi energy shift (Ry) =    -3.6140E-20     1.8684E-44

      iter #   9 total cpu time : 11371.5 secs   av.it.:  17.9
      thresh= 6.926E-09 alpha_mix =  0.700 |ddv_scf|^2 =  8.760E-17

     End of self-consistent calculation

     Convergence has been achieved 


     Representation #  22 modes #  32  33

     Self-consistent Calculation

     Pert. #  1: Fermi energy shift (Ry) =     2.3130E-18     5.9789E-43
     Pert. #  2: Fermi energy shift (Ry) =    -5.7824E-19     5.9789E-43

      iter #   1 total cpu time : 11473.2 secs   av.it.:   6.2
      thresh= 1.000E-02 alpha_mix =  0.700 |ddv_scf|^2 =  1.709E-08

     Pert. #  1: Fermi energy shift (Ry) =    -9.2519E-18    -1.4349E-42
     Pert. #  2: Fermi energy shift (Ry) =     1.1565E-18    -6.6963E-42

      iter #   2 total cpu time : 11532.7 secs   av.it.:  20.1
      thresh= 1.307E-05 alpha_mix =  0.700 |ddv_scf|^2 =  3.951E-07

     Pert. #  1: Fermi energy shift (Ry) =     2.8912E-18    -2.8699E-42
     Pert. #  2: Fermi energy shift (Ry) =    -1.7347E-18    -3.5873E-42

      iter #   3 total cpu time : 11587.5 secs   av.it.:  16.9
      thresh= 6.285E-05 alpha_mix =  0.700 |ddv_scf|^2 =  7.348E-09

     Pert. #  1: Fermi energy shift (Ry) =     9.0350E-21     8.3704E-43
     Pert. #  2: Fermi energy shift (Ry) =     6.7763E-21    -1.1360E-42

      iter #   4 total cpu time : 11656.0 secs   av.it.:  17.7
      thresh= 8.572E-06 alpha_mix =  0.700 |ddv_scf|^2 =  3.188E-11

     Pert. #  1: Fermi energy shift (Ry) =    -1.0842E-19     2.6905E-43
     Pert. #  2: Fermi energy shift (Ry) =     7.2280E-20     2.6905E-43

      iter #   5 total cpu time : 11711.4 secs   av.it.:  18.9
      thresh= 5.646E-07 alpha_mix =  0.700 |ddv_scf|^2 =  3.229E-12

     Pert. #  1: Fermi energy shift (Ry) =    -4.5175E-20     2.6905E-43
     Pert. #  2: Fermi energy shift (Ry) =    -7.2280E-20     2.6905E-43

      iter #   6 total cpu time : 11753.5 secs   av.it.:  18.6
      thresh= 1.797E-07 alpha_mix =  0.700 |ddv_scf|^2 =  4.388E-14

     Pert. #  1: Fermi energy shift (Ry) =    -7.2280E-20     4.4842E-43
     Pert. #  2: Fermi energy shift (Ry) =    -4.9693E-20     1.4947E-43

      iter #   7 total cpu time : 11790.6 secs   av.it.:  19.6
      thresh= 2.095E-08 alpha_mix =  0.700 |ddv_scf|^2 =  1.436E-14

     Pert. #  1: Fermi energy shift (Ry) =    -3.6140E-20     4.4842E-43
     Pert. #  2: Fermi energy shift (Ry) =    -3.6140E-20     1.4947E-43

      iter #   8 total cpu time : 11832.6 secs   av.it.:  18.7
      thresh= 1.199E-08 alpha_mix =  0.700 |ddv_scf|^2 =  3.391E-15

     Pert. #  1: Fermi energy shift (Ry) =    -9.0350E-20     4.4842E-43
     Pert. #  2: Fermi energy shift (Ry) =     4.5175E-21     1.4947E-43

      iter #   9 total cpu time : 11934.0 secs   av.it.:  18.6
      thresh= 5.823E-09 alpha_mix =  0.700 |ddv_scf|^2 =  7.554E-17

     End of self-consistent calculation

     Convergence has been achieved 


     Representation #  23 mode #  34

     Self-consistent Calculation

     Pert. #  1: Fermi energy shift (Ry) =    -1.0771E-27     1.0031E-36

      iter #   1 total cpu time : 12049.5 secs   av.it.:   7.0
      thresh= 1.000E-02 alpha_mix =  0.700 |ddv_scf|^2 =  1.379E-08

     Pert. #  1: Fermi energy shift (Ry) =     0.0000E+00    -2.4489E-40

      iter #   2 total cpu time : 12089.7 secs   av.it.:  17.7
      thresh= 1.174E-05 alpha_mix =  0.700 |ddv_scf|^2 =  2.447E-09

     Pert. #  1: Fermi energy shift (Ry) =    -8.6165E-27    -1.2245E-40

      iter #   3 total cpu time : 12170.2 secs   av.it.:  17.3
      thresh= 4.947E-06 alpha_mix =  0.700 |ddv_scf|^2 =  1.008E-11

     Pert. #  1: Fermi energy shift (Ry) =     3.2312E-27     3.8265E-42

      iter #   4 total cpu time : 12215.9 secs   av.it.:  17.4
      thresh= 3.175E-07 alpha_mix =  0.700 |ddv_scf|^2 =  3.132E-13

     Pert. #  1: Fermi energy shift (Ry) =     3.2312E-27    -2.3915E-43

      iter #   5 total cpu time : 12287.7 secs   av.it.:  17.0
      thresh= 5.596E-08 alpha_mix =  0.700 |ddv_scf|^2 =  2.590E-15

     Pert. #  1: Fermi energy shift (Ry) =     0.0000E+00     4.7831E-43

      iter #   6 total cpu time : 12321.3 secs   av.it.:  17.6
      thresh= 5.090E-09 alpha_mix =  0.700 |ddv_scf|^2 =  6.850E-17

     End of self-consistent calculation

     Convergence has been achieved 


     Representation #  24 mode #  35

     Self-consistent Calculation

     Pert. #  1: Fermi energy shift (Ry) =     0.0000E+00    -1.0031E-36

      iter #   1 total cpu time : 12427.5 secs   av.it.:   5.0
      thresh= 1.000E-02 alpha_mix =  0.700 |ddv_scf|^2 =  3.406E-09

     Pert. #  1: Fermi energy shift (Ry) =     4.3082E-27    -2.9387E-39

      iter #   2 total cpu time : 12460.4 secs   av.it.:  17.3
      thresh= 5.836E-06 alpha_mix =  0.700 |ddv_scf|^2 =  6.209E-10

     Pert. #  1: Fermi energy shift (Ry) =     1.2925E-26     1.2245E-40

      iter #   3 total cpu time : 12498.0 secs   av.it.:  17.1
      thresh= 2.492E-06 alpha_mix =  0.700 |ddv_scf|^2 =  2.616E-12

     Pert. #  1: Fermi energy shift (Ry) =     5.3853E-28    -4.5918E-41

      iter #   4 total cpu time : 12543.0 secs   av.it.:  16.9
      thresh= 1.618E-07 alpha_mix =  0.700 |ddv_scf|^2 =  3.517E-13

     Pert. #  1: Fermi energy shift (Ry) =     1.3463E-28     7.6530E-42

      iter #   5 total cpu time : 12579.2 secs   av.it.:  16.0
      thresh= 5.931E-08 alpha_mix =  0.700 |ddv_scf|^2 =  1.976E-14

     Pert. #  1: Fermi energy shift (Ry) =     2.6926E-28     4.7831E-43

      iter #   6 total cpu time : 12626.0 secs   av.it.:  16.9
      thresh= 1.406E-08 alpha_mix =  0.700 |ddv_scf|^2 =  3.410E-16

     Pert. #  1: Fermi energy shift (Ry) =     0.0000E+00    -1.4349E-42

      iter #   7 total cpu time : 12645.9 secs   av.it.:  16.7
      thresh= 1.847E-09 alpha_mix =  0.700 |ddv_scf|^2 =  3.059E-18

     End of self-consistent calculation

     Convergence has been achieved 


     Representation #  25 mode #  36

     Self-consistent Calculation

     Pert. #  1: Fermi energy shift (Ry) =    -1.0771E-27    -1.5046E-36

      iter #   1 total cpu time : 12720.9 secs   av.it.:   5.4
      thresh= 1.000E-02 alpha_mix =  0.700 |ddv_scf|^2 =  3.395E-09

     Pert. #  1: Fermi energy shift (Ry) =    -1.2925E-26     7.3468E-40

      iter #   2 total cpu time : 12759.7 secs   av.it.:  17.6
      thresh= 5.826E-06 alpha_mix =  0.700 |ddv_scf|^2 =  5.696E-10

     Pert. #  1: Fermi energy shift (Ry) =     4.3082E-27     1.8367E-40

      iter #   3 total cpu time : 12800.4 secs   av.it.:  17.0
      thresh= 2.387E-06 alpha_mix =  0.700 |ddv_scf|^2 =  1.504E-12

     Pert. #  1: Fermi energy shift (Ry) =     1.3463E-28    -7.6530E-42

      iter #   4 total cpu time : 12834.0 secs   av.it.:  17.4
      thresh= 1.227E-07 alpha_mix =  0.700 |ddv_scf|^2 =  7.408E-14

     Pert. #  1: Fermi energy shift (Ry) =     2.6926E-28     1.9132E-42

      iter #   5 total cpu time : 12870.1 secs   av.it.:  16.9
      thresh= 2.722E-08 alpha_mix =  0.700 |ddv_scf|^2 =  1.992E-15

     Pert. #  1: Fermi energy shift (Ry) =     6.7316E-28     9.5662E-43

      iter #   6 total cpu time : 12889.0 secs   av.it.:  17.6
      thresh= 4.463E-09 alpha_mix =  0.700 |ddv_scf|^2 =  7.041E-17

     End of self-consistent calculation

     Convergence has been achieved 


     Representation #  26 mode #  37

     Self-consistent Calculation

     Pert. #  1: Fermi energy shift (Ry) =    -6.8932E-26    -2.5077E-37

      iter #   1 total cpu time : 13079.3 secs   av.it.:   6.0
      thresh= 1.000E-02 alpha_mix =  0.700 |ddv_scf|^2 =  3.520E-07

     Pert. #  1: Fermi energy shift (Ry) =    -1.7233E-26     0.0000E+00

      iter #   2 total cpu time : 13113.4 secs   av.it.:  16.0
      thresh= 5.933E-05 alpha_mix =  0.700 |ddv_scf|^2 =  5.649E-04

     Pert. #  1: Fermi energy shift (Ry) =     1.1029E-24     6.2693E-38

      iter #   3 total cpu time : 13173.0 secs   av.it.:   8.9
      thresh= 2.377E-03 alpha_mix =  0.700 |ddv_scf|^2 =  5.011E-06

     Pert. #  1: Fermi energy shift (Ry) =    -6.8932E-26     7.8366E-39

      iter #   4 total cpu time : 13204.4 secs   av.it.:  12.7
      thresh= 2.239E-04 alpha_mix =  0.700 |ddv_scf|^2 =  3.876E-06

     Pert. #  1: Fermi energy shift (Ry) =     8.6165E-27    -1.5673E-38

      iter #   5 total cpu time : 13244.5 secs   av.it.:  11.6
      thresh= 1.969E-04 alpha_mix =  0.700 |ddv_scf|^2 =  7.945E-07

     Pert. #  1: Fermi energy shift (Ry) =     0.0000E+00     0.0000E+00

      iter #   6 total cpu time : 13275.0 secs   av.it.:  11.3
      thresh= 8.914E-05 alpha_mix =  0.700 |ddv_scf|^2 =  1.973E-07

     Pert. #  1: Fermi energy shift (Ry) =    -2.1541E-27     0.0000E+00

      iter #   7 total cpu time : 13298.6 secs   av.it.:  11.6
      thresh= 4.441E-05 alpha_mix =  0.700 |ddv_scf|^2 =  1.793E-08

     Pert. #  1: Fermi energy shift (Ry) =     2.1541E-27    -4.8979E-40

      iter #   8 total cpu time : 13321.9 secs   av.it.:  12.0
      thresh= 1.339E-05 alpha_mix =  0.700 |ddv_scf|^2 =  1.742E-10

     Pert. #  1: Fermi energy shift (Ry) =    -5.3853E-28    -3.0612E-41

      iter #   9 total cpu time : 13348.6 secs   av.it.:  13.7
      thresh= 1.320E-06 alpha_mix =  0.700 |ddv_scf|^2 =  1.509E-10

     Pert. #  1: Fermi energy shift (Ry) =    -5.3853E-28    -6.1224E-41

      iter #  10 total cpu time : 13368.3 secs   av.it.:  11.9
      thresh= 1.228E-06 alpha_mix =  0.700 |ddv_scf|^2 =  3.312E-12

     Pert. #  1: Fermi energy shift (Ry) =    -5.3853E-28     3.8265E-42

      iter #  11 total cpu time : 13390.4 secs   av.it.:  13.0
      thresh= 1.820E-07 alpha_mix =  0.700 |ddv_scf|^2 =  2.886E-13

     Pert. #  1: Fermi energy shift (Ry) =    -5.3853E-28    -3.8265E-42

      iter #  12 total cpu time : 13421.5 secs   av.it.:  13.7
      thresh= 5.372E-08 alpha_mix =  0.700 |ddv_scf|^2 =  6.993E-14

     Pert. #  1: Fermi energy shift (Ry) =    -5.3853E-28     4.7831E-43

      iter #  13 total cpu time : 13450.1 secs   av.it.:  13.4
      thresh= 2.644E-08 alpha_mix =  0.700 |ddv_scf|^2 =  1.750E-16

     Pert. #  1: Fermi energy shift (Ry) =    -5.3853E-28     0.0000E+00

      iter #  14 total cpu time : 13480.5 secs   av.it.:  15.6
      thresh= 1.323E-09 alpha_mix =  0.700 |ddv_scf|^2 =  2.661E-16

     Pert. #  1: Fermi energy shift (Ry) =    -5.3853E-28     0.0000E+00

      iter #  15 total cpu time : 13507.0 secs   av.it.:  14.0
      thresh= 1.631E-09 alpha_mix =  0.700 |ddv_scf|^2 =  6.965E-16

     Pert. #  1: Fermi energy shift (Ry) =     0.0000E+00     0.0000E+00

      iter #  16 total cpu time : 13532.9 secs   av.it.:  12.0
      thresh= 2.639E-09 alpha_mix =  0.700 |ddv_scf|^2 =  6.149E-16

     Pert. #  1: Fermi energy shift (Ry) =     0.0000E+00     0.0000E+00

      iter #  17 total cpu time : 13558.2 secs   av.it.:  11.9
      thresh= 2.480E-09 alpha_mix =  0.700 |ddv_scf|^2 =  2.203E-16

     Pert. #  1: Fermi energy shift (Ry) =    -5.3853E-28    -2.3915E-43

      iter #  18 total cpu time : 13582.9 secs   av.it.:  13.0
      thresh= 1.484E-09 alpha_mix =  0.700 |ddv_scf|^2 =  2.517E-16

     Pert. #  1: Fermi energy shift (Ry) =     0.0000E+00     5.9789E-44

      iter #  19 total cpu time : 13621.6 secs   av.it.:  12.0
      thresh= 1.586E-09 alpha_mix =  0.700 |ddv_scf|^2 =  4.327E-17

     End of self-consistent calculation

     Convergence has been achieved 


     Representation #  27 mode #  38

     Self-consistent Calculation

     Pert. #  1: Fermi energy shift (Ry) =    -1.6544E-24    -9.4040E-38

      iter #   1 total cpu time : 13738.7 secs   av.it.:   8.0
      thresh= 1.000E-02 alpha_mix =  0.700 |ddv_scf|^2 =  1.356E-04

     Pert. #  1: Fermi energy shift (Ry) =     8.2718E-25     2.3510E-38

      iter #   2 total cpu time : 13770.3 secs   av.it.:  15.3
      thresh= 1.165E-03 alpha_mix =  0.700 |ddv_scf|^2 =  2.746E-01

     Pert. #  1: Fermi energy shift (Ry) =     8.2718E-25     1.8808E-37

      iter #   3 total cpu time : 13819.8 secs   av.it.:  11.7
      thresh= 1.000E-02 alpha_mix =  0.700 |ddv_scf|^2 =  1.307E-04

     Pert. #  1: Fermi energy shift (Ry) =     1.2925E-26    -2.9387E-39

      iter #   4 total cpu time : 13863.9 secs   av.it.:  12.9
      thresh= 1.143E-03 alpha_mix =  0.700 |ddv_scf|^2 =  7.288E-04

     Pert. #  1: Fermi energy shift (Ry) =     1.6544E-24     4.7020E-38

      iter #   5 total cpu time : 13950.2 secs   av.it.:  10.7
      thresh= 2.700E-03 alpha_mix =  0.700 |ddv_scf|^2 =  3.448E-05

     Pert. #  1: Fermi energy shift (Ry) =     8.6165E-26    -2.3510E-38

[...]

      iter #  18 total cpu time : 68996.9 secs   av.it.:  15.8
      thresh= 1.497E-09 alpha_mix =  0.700 |ddv_scf|^2 =  7.546E-17

     End of self-consistent calculation

     Convergence has been achieved 


     Representation #  65 mode #  65

     Self-consistent Calculation

      iter #   1 total cpu time : 69153.2 secs   av.it.:   6.0
      thresh= 1.000E-02 alpha_mix =  0.700 |ddv_scf|^2 =  2.666E-07

      iter #   2 total cpu time : 69201.1 secs   av.it.:  17.9
      thresh= 5.163E-05 alpha_mix =  0.700 |ddv_scf|^2 =  1.670E-05

      iter #   3 total cpu time : 69258.2 secs   av.it.:  14.1
      thresh= 4.087E-04 alpha_mix =  0.700 |ddv_scf|^2 =  1.685E-06

      iter #   4 total cpu time : 69313.4 secs   av.it.:  13.4
      thresh= 1.298E-04 alpha_mix =  0.700 |ddv_scf|^2 =  3.261E-07

      iter #   5 total cpu time : 69363.4 secs   av.it.:  15.0
      thresh= 5.711E-05 alpha_mix =  0.700 |ddv_scf|^2 =  1.596E-08

      iter #   6 total cpu time : 69404.0 secs   av.it.:  15.5
      thresh= 1.263E-05 alpha_mix =  0.700 |ddv_scf|^2 =  1.355E-09

      iter #   7 total cpu time : 69454.7 secs   av.it.:  15.4
      thresh= 3.681E-06 alpha_mix =  0.700 |ddv_scf|^2 =  4.302E-11

      iter #   8 total cpu time : 69494.6 secs   av.it.:  16.0
      thresh= 6.559E-07 alpha_mix =  0.700 |ddv_scf|^2 =  7.740E-12

      iter #   9 total cpu time : 69535.9 secs   av.it.:  16.0
      thresh= 2.782E-07 alpha_mix =  0.700 |ddv_scf|^2 =  1.951E-12

      iter #  10 total cpu time : 69580.2 secs   av.it.:  15.7
      thresh= 1.397E-07 alpha_mix =  0.700 |ddv_scf|^2 =  3.500E-14

      iter #  11 total cpu time : 69613.2 secs   av.it.:  17.2
      thresh= 1.871E-08 alpha_mix =  0.700 |ddv_scf|^2 =  7.321E-14

      iter #  12 total cpu time : 69653.3 secs   av.it.:  15.1
      thresh= 2.706E-08 alpha_mix =  0.700 |ddv_scf|^2 =  6.416E-15

      iter #  13 total cpu time : 69690.4 secs   av.it.:  15.1
      thresh= 8.010E-09 alpha_mix =  0.700 |ddv_scf|^2 =  4.798E-16

      iter #  14 total cpu time : 69735.2 secs   av.it.:  17.0
      thresh= 2.190E-09 alpha_mix =  0.700 |ddv_scf|^2 =  7.916E-16

      iter #  15 total cpu time : 69771.2 secs   av.it.:  16.1
      thresh= 2.813E-09 alpha_mix =  0.700 |ddv_scf|^2 =  7.025E-16

      iter #  16 total cpu time : 69804.4 secs   av.it.:  14.0
      thresh= 2.650E-09 alpha_mix =  0.700 |ddv_scf|^2 =  1.903E-16

      iter #  17 total cpu time : 69837.2 secs   av.it.:  14.8
      thresh= 1.380E-09 alpha_mix =  0.700 |ddv_scf|^2 =  5.495E-18

     End of self-consistent calculation

     Convergence has been achieved 


     Representation #  66 mode #  66

     Self-consistent Calculation

      iter #   1 total cpu time : 70009.4 secs   av.it.:   6.6
      thresh= 1.000E-02 alpha_mix =  0.700 |ddv_scf|^2 =  1.903E-06

      iter #   2 total cpu time : 70056.2 secs   av.it.:  17.9
      thresh= 1.380E-04 alpha_mix =  0.700 |ddv_scf|^2 =  5.127E-04

      iter #   3 total cpu time : 70113.2 secs   av.it.:  13.0
      thresh= 2.264E-03 alpha_mix =  0.700 |ddv_scf|^2 =  1.095E-06

      iter #   4 total cpu time : 70158.5 secs   av.it.:  15.2
      thresh= 1.046E-04 alpha_mix =  0.700 |ddv_scf|^2 =  1.307E-06

      iter #   5 total cpu time : 70209.6 secs   av.it.:  14.0
      thresh= 1.143E-04 alpha_mix =  0.700 |ddv_scf|^2 =  3.228E-07

      iter #   6 total cpu time : 70252.2 secs   av.it.:  14.1
      thresh= 5.681E-05 alpha_mix =  0.700 |ddv_scf|^2 =  2.812E-09

      iter #   7 total cpu time : 70297.8 secs   av.it.:  16.0
      thresh= 5.303E-06 alpha_mix =  0.700 |ddv_scf|^2 =  5.159E-10

      iter #   8 total cpu time : 70333.6 secs   av.it.:  15.1
      thresh= 2.271E-06 alpha_mix =  0.700 |ddv_scf|^2 =  4.717E-12

      iter #   9 total cpu time : 70371.4 secs   av.it.:  17.1
      thresh= 2.172E-07 alpha_mix =  0.700 |ddv_scf|^2 =  4.518E-12

      iter #  10 total cpu time : 70401.7 secs   av.it.:  15.1
      thresh= 2.126E-07 alpha_mix =  0.700 |ddv_scf|^2 =  3.078E-13

      iter #  11 total cpu time : 70442.3 secs   av.it.:  14.6
      thresh= 5.548E-08 alpha_mix =  0.700 |ddv_scf|^2 =  6.888E-14

      iter #  12 total cpu time : 70476.2 secs   av.it.:  15.0
      thresh= 2.625E-08 alpha_mix =  0.700 |ddv_scf|^2 =  1.967E-14

      iter #  13 total cpu time : 70526.4 secs   av.it.:  16.0
      thresh= 1.403E-08 alpha_mix =  0.700 |ddv_scf|^2 =  8.684E-15

      iter #  14 total cpu time : 70558.3 secs   av.it.:  15.8
      thresh= 9.319E-09 alpha_mix =  0.700 |ddv_scf|^2 =  2.811E-15

      iter #  15 total cpu time : 70590.9 secs   av.it.:  15.0
      thresh= 5.302E-09 alpha_mix =  0.700 |ddv_scf|^2 =  7.467E-16

      iter #  16 total cpu time : 70638.1 secs   av.it.:  15.8
      thresh= 2.733E-09 alpha_mix =  0.700 |ddv_scf|^2 =  4.789E-16

      iter #  17 total cpu time : 70671.6 secs   av.it.:  14.5
      thresh= 2.188E-09 alpha_mix =  0.700 |ddv_scf|^2 =  2.758E-16

      iter #  18 total cpu time : 70701.2 secs   av.it.:  15.0
      thresh= 1.661E-09 alpha_mix =  0.700 |ddv_scf|^2 =  4.319E-17

     End of self-consistent calculation

     Convergence has been achieved 

     Number of q in the star =    3
     List of q in the star:
          1   0.288675135  -0.500000000   0.000000000
          2   0.577350269  -0.000000000   0.000000000
          3  -0.288675135  -0.500000000   0.000000000

     Diagonalizing the dynamical matrix

     q = (    0.288675135  -0.500000000   0.000000000 ) 

 **************************************************************************
     freq (    1) =       1.654229 [THz] =      55.179142 [cm-1]
     freq (    2) =       1.948799 [THz] =      65.004928 [cm-1]
     freq (    3) =       1.998341 [THz] =      66.657481 [cm-1]
     freq (    4) =       2.047912 [THz] =      68.310990 [cm-1]
     freq (    5) =       2.305971 [THz] =      76.918910 [cm-1]
     freq (    6) =       2.334414 [THz] =      77.867671 [cm-1]
     freq (    7) =       2.861727 [THz] =      95.456944 [cm-1]
     freq (    8) =       2.895392 [THz] =      96.579883 [cm-1]
     freq (    9) =       3.001213 [THz] =     100.109675 [cm-1]
     freq (   10) =       3.045380 [THz] =     101.582930 [cm-1]
     freq (   11) =       3.325900 [THz] =     110.940070 [cm-1]
     freq (   12) =       3.356121 [THz] =     111.948161 [cm-1]
     freq (   13) =       3.935516 [THz] =     131.274692 [cm-1]
     freq (   14) =       3.970679 [THz] =     132.447606 [cm-1]
     freq (   15) =       3.985671 [THz] =     132.947686 [cm-1]
     freq (   16) =       3.993561 [THz] =     133.210863 [cm-1]
     freq (   17) =       4.593295 [THz] =     153.215813 [cm-1]
     freq (   18) =       4.723678 [THz] =     157.564922 [cm-1]
     freq (   19) =       4.771634 [THz] =     159.164577 [cm-1]
     freq (   20) =       4.842858 [THz] =     161.540353 [cm-1]
     freq (   21) =       4.941757 [THz] =     164.839254 [cm-1]
     freq (   22) =       4.959857 [THz] =     165.443010 [cm-1]
     freq (   23) =       5.013397 [THz] =     167.228919 [cm-1]
     freq (   24) =       5.298722 [THz] =     176.746337 [cm-1]
     freq (   25) =       5.299482 [THz] =     176.771705 [cm-1]
     freq (   26) =       5.342978 [THz] =     178.222571 [cm-1]
     freq (   27) =       5.643975 [THz] =     188.262738 [cm-1]
     freq (   28) =       5.681673 [THz] =     189.520202 [cm-1]
     freq (   29) =       6.388078 [THz] =     213.083357 [cm-1]
     freq (   30) =       6.418513 [THz] =     214.098562 [cm-1]
     freq (   31) =       6.423244 [THz] =     214.256343 [cm-1]
     freq (   32) =       6.431512 [THz] =     214.532140 [cm-1]
     freq (   33) =       6.708516 [THz] =     223.772015 [cm-1]
     freq (   34) =       6.717863 [THz] =     224.083777 [cm-1]
     freq (   35) =       6.764365 [THz] =     225.634928 [cm-1]
     freq (   36) =       6.782759 [THz] =     226.248474 [cm-1]
     freq (   37) =       6.842262 [THz] =     228.233278 [cm-1]
     freq (   38) =       6.893719 [THz] =     229.949721 [cm-1]
     freq (   39) =       7.005794 [THz] =     233.688121 [cm-1]
     freq (   40) =       7.046006 [THz] =     235.029470 [cm-1]
     freq (   41) =       7.297319 [THz] =     243.412367 [cm-1]
     freq (   42) =       7.454149 [THz] =     248.643642 [cm-1]
     freq (   43) =       7.616725 [THz] =     254.066591 [cm-1]
     freq (   44) =       7.620532 [THz] =     254.193577 [cm-1]
     freq (   45) =       7.620969 [THz] =     254.208159 [cm-1]
     freq (   46) =       7.813398 [THz] =     260.626896 [cm-1]
     freq (   47) =       7.826534 [THz] =     261.065070 [cm-1]
     freq (   48) =       8.063749 [THz] =     268.977722 [cm-1]
     freq (   49) =       8.079300 [THz] =     269.496440 [cm-1]
     freq (   50) =       8.341184 [THz] =     278.231951 [cm-1]
     freq (   51) =       8.448379 [THz] =     281.807592 [cm-1]
     freq (   52) =       8.476650 [THz] =     282.750597 [cm-1]
     freq (   53) =       8.478687 [THz] =     282.818549 [cm-1]
     freq (   54) =       8.485476 [THz] =     283.045009 [cm-1]
     freq (   55) =       9.042201 [THz] =     301.615344 [cm-1]
     freq (   56) =       9.085034 [THz] =     303.044117 [cm-1]
     freq (   57) =       9.478211 [THz] =     316.159090 [cm-1]
     freq (   58) =       9.485132 [THz] =     316.389931 [cm-1]
     freq (   59) =       9.890566 [THz] =     329.913775 [cm-1]
     freq (   60) =       9.990779 [THz] =     333.256531 [cm-1]
     freq (   61) =      10.293552 [THz] =     343.355936 [cm-1]
     freq (   62) =      10.408538 [THz] =     347.191469 [cm-1]
     freq (   63) =      10.767815 [THz] =     359.175663 [cm-1]
     freq (   64) =      10.897056 [THz] =     363.486648 [cm-1]
     freq (   65) =      11.001274 [THz] =     366.963008 [cm-1]
     freq (   66) =      11.225737 [THz] =     374.450276 [cm-1]
 **************************************************************************

     Mode symmetry, C_2h (2/m)  point group:

     freq (   1-   1) =         55.2  [cm-1]   --> B_u                
     freq (   2-   2) =         65.0  [cm-1]   --> A_g                
     freq (   3-   3) =         66.7  [cm-1]   --> A_u                
     freq (   4-   4) =         68.3  [cm-1]   --> B_g                
     freq (   5-   5) =         76.9  [cm-1]   --> B_u                
     freq (   6-   6) =         77.9  [cm-1]   --> A_g                
     freq (   7-   7) =         95.5  [cm-1]   --> B_g                
     freq (   8-   8) =         96.6  [cm-1]   --> A_u                
     freq (   9-   9) =        100.1  [cm-1]   --> B_g                
     freq (  10-  10) =        101.6  [cm-1]   --> A_u                
     freq (  11-  11) =        110.9  [cm-1]   --> A_g                
     freq (  12-  12) =        111.9  [cm-1]   --> B_u                
     freq (  13-  13) =        131.3  [cm-1]   --> B_g                
     freq (  14-  14) =        132.4  [cm-1]   --> B_u                
     freq (  15-  15) =        132.9  [cm-1]   --> A_g                
     freq (  16-  16) =        133.2  [cm-1]   --> A_u                
     freq (  17-  17) =        153.2  [cm-1]   --> B_g                
     freq (  18-  18) =        157.6  [cm-1]   --> A_g                
     freq (  19-  19) =        159.2  [cm-1]   --> A_u                
     freq (  20-  20) =        161.5  [cm-1]   --> B_u                
     freq (  21-  21) =        164.8  [cm-1]   --> B_u                
     freq (  22-  22) =        165.4  [cm-1]   --> A_g                
     freq (  23-  23) =        167.2  [cm-1]   --> B_u                
     freq (  24-  24) =        176.7  [cm-1]   --> A_g                
     freq (  25-  25) =        176.8  [cm-1]   --> B_g                
     freq (  26-  26) =        178.2  [cm-1]   --> A_u                
     freq (  27-  27) =        188.3  [cm-1]   --> A_g                
     freq (  28-  28) =        189.5  [cm-1]   --> B_u                
     freq (  29-  29) =        213.1  [cm-1]   --> B_u                
     freq (  30-  30) =        214.1  [cm-1]   --> B_g                
     freq (  31-  31) =        214.3  [cm-1]   --> A_u                
     freq (  32-  32) =        214.5  [cm-1]   --> A_g                
     freq (  33-  33) =        223.8  [cm-1]   --> B_u                
     freq (  34-  34) =        224.1  [cm-1]   --> A_g                
     freq (  35-  35) =        225.6  [cm-1]   --> B_g                
     freq (  36-  36) =        226.2  [cm-1]   --> B_u                
     freq (  37-  37) =        228.2  [cm-1]   --> A_u                
     freq (  38-  38) =        229.9  [cm-1]   --> A_g                
     freq (  39-  39) =        233.7  [cm-1]   --> B_g                
     freq (  40-  40) =        235.0  [cm-1]   --> A_u                
     freq (  41-  41) =        243.4  [cm-1]   --> B_u                
     freq (  42-  42) =        248.6  [cm-1]   --> A_g                
     freq (  43-  43) =        254.1  [cm-1]   --> B_u                
     freq (  44-  44) =        254.2  [cm-1]   --> B_g                
     freq (  45-  45) =        254.2  [cm-1]   --> A_u                
     freq (  46-  46) =        260.6  [cm-1]   --> A_g                
     freq (  47-  47) =        261.1  [cm-1]   --> B_u                
     freq (  48-  48) =        269.0  [cm-1]   --> A_u                
     freq (  49-  49) =        269.5  [cm-1]   --> B_g                
     freq (  50-  50) =        278.2  [cm-1]   --> A_g                
     freq (  51-  51) =        281.8  [cm-1]   --> B_g                
     freq (  52-  52) =        282.8  [cm-1]   --> A_g                
     freq (  53-  53) =        282.8  [cm-1]   --> B_u                
     freq (  54-  54) =        283.0  [cm-1]   --> A_u                
     freq (  55-  55) =        301.6  [cm-1]   --> B_g                
     freq (  56-  56) =        303.0  [cm-1]   --> A_u                
     freq (  57-  57) =        316.2  [cm-1]   --> A_g                
     freq (  58-  58) =        316.4  [cm-1]   --> B_u                
     freq (  59-  59) =        329.9  [cm-1]   --> B_u                
     freq (  60-  60) =        333.3  [cm-1]   --> A_g                
     freq (  61-  61) =        343.4  [cm-1]   --> B_g                
     freq (  62-  62) =        347.2  [cm-1]   --> A_u                
     freq (  63-  63) =        359.2  [cm-1]   --> A_g                
     freq (  64-  64) =        363.5  [cm-1]   --> B_u                
     freq (  65-  65) =        367.0  [cm-1]   --> B_u                
     freq (  66-  66) =        374.5  [cm-1]   --> A_g                

     init_run     :      0.45s CPU      2.75s WALL (       1 calls)
     electrons    :     59.46s CPU     65.03s WALL (       1 calls)

     Called by init_run:
     wfcinit      :      0.00s CPU      1.84s WALL (       1 calls)
     potinit      :      0.06s CPU      0.50s WALL (       1 calls)
     hinit0       :      0.01s CPU      0.02s WALL (       1 calls)

     Called by electrons:
     c_bands      :     59.45s CPU     64.96s WALL (       1 calls)
     v_of_rho     :      0.09s CPU      0.10s WALL (       2 calls)

     Called by c_bands:
     init_us_2    :     17.88s CPU     19.12s WALL (    2755 calls)
     cegterg      :     55.96s CPU     56.72s WALL (      12 calls)

     Called by *egterg:
     cdiaghg      :      8.01s CPU      8.06s WALL (     191 calls)
     h_psi        :  11373.09s CPU  11499.63s WALL (  114662 calls)
     g_psi        :      0.15s CPU      0.15s WALL (     187 calls)

     Called by h_psi:
     h_psi:calbec :   1433.43s CPU   1448.97s WALL (  114662 calls)
     vloc_psi     :   8475.91s CPU   8572.23s WALL (  114662 calls)
     add_vuspsi   :   1243.66s CPU   1256.45s WALL (  114662 calls)

     General routines
     calbec       :   3094.99s CPU   3126.68s WALL (  229987 calls)
     fft          :     69.40s CPU     77.61s WALL (   19645 calls)
     ffts         :    639.96s CPU    648.59s WALL (   11638 calls)
     fftw         :  11195.03s CPU  11311.51s WALL ( 8787786 calls)
     davcio       :      2.70s CPU   7810.05s WALL (   25326 calls)

     Parallel routines

     PHONON       :  53651.15s CPU  70799.49s WALL

     INITIALIZATION: 
     phq_setup    :      0.20s CPU      0.79s WALL (       2 calls)
     phq_init     :      8.71s CPU     12.02s WALL (       2 calls)

     phq_init     :      8.71s CPU     12.02s WALL (       2 calls)
     init_vloc    :      0.01s CPU      0.01s WALL (       2 calls)
     init_us_1    :      0.00s CPU      0.00s WALL (       2 calls)
     init_us_2    :     17.88s CPU     19.12s WALL (    2755 calls)

     DYNAMICAL MATRIX:
     dynmat0      :      7.93s CPU     11.20s WALL (       2 calls)
     dynmat_us    :      1.56s CPU      1.59s WALL (       2 calls)
     d2ionq       :      0.97s CPU      0.97s WALL (       2 calls)
     phqscf       :  53487.79s CPU  70137.31s WALL (       2 calls)
     dynmatrix    :      8.57s CPU      8.80s WALL (       2 calls)

     phqscf       :  53487.79s CPU  70137.31s WALL (       2 calls)
     solve_linter :  53258.78s CPU  69482.93s WALL (     110 calls)
     sth_kernel   :  24025.48s CPU  27821.62s WALL (    1426 calls)
     h_prec       :   2451.47s CPU   2467.42s WALL (    2349 calls)
     apply_dpot_b :   1813.21s CPU   1829.98s WALL (    2376 calls)
     ortho        :    227.47s CPU    229.67s WALL (    2574 calls)
     cgsolve      :  16812.47s CPU  17007.27s WALL (    2574 calls)
     incdrhoscf   :   1595.21s CPU   1609.29s WALL (    2574 calls)
                                        0.00s GPU  (    2574 calls)
     dv_of_drho   :     99.42s CPU    107.81s WALL (    1651 calls)
     mix_pot      :   3459.08s CPU   9917.77s WALL (    1426 calls)
     ef_shift     :      3.41s CPU      5.23s WALL (     503 calls)
     ef_shift_wfc :      0.05s CPU     11.23s WALL (      44 calls)
     localdos     :    272.60s CPU    276.16s WALL (      44 calls)
     drhodv       :    225.36s CPU    277.33s WALL (     110 calls)
     psymdvscf    :    968.69s CPU   1030.08s WALL (    1426 calls)

     dvqpsi_us    :    694.79s CPU    700.12s WALL (     198 calls)
                                        0.00s GPU  (     198 calls)
     dvqpsi_us_on :     30.53s CPU     30.96s WALL (     198 calls)

     add_vuspsi   :   1243.66s CPU   1256.45s WALL (  114662 calls)


      General routines
     calbec       :   3094.99s CPU   3126.68s WALL (  229987 calls)
     fft          :     69.40s CPU     77.61s WALL (   19645 calls)
     ffts         :    639.96s CPU    648.59s WALL (   11638 calls)
     fftw         :  11195.03s CPU  11311.51s WALL ( 8787786 calls)
     davcio       :      2.70s CPU   7810.05s WALL (   25326 calls)
     write_rec    :      8.56s CPU   5435.64s WALL (    1536 calls)

      Additional routines
     ch_psi       :  15503.60s CPU  15675.69s WALL (  114459 calls)
     last         :   3543.08s CPU   3579.64s WALL (  114459 calls)
     Hesh         :    281.98s CPU    285.02s WALL (  114459 calls)
     ch_psi_all_k :   3259.88s CPU   3293.72s WALL (  114459 calls)
                                        0.00s GPU  (  114459 calls)
     ch_psi_calbe :   1397.26s CPU   1409.66s WALL (  114459 calls)
                                        0.00s GPU  (  114459 calls)
     h_psi_bgrp   :  11373.48s CPU  11499.89s WALL (  114662 calls)
     h_psi        :  11373.09s CPU  11499.63s WALL (  114662 calls)
     h_psi:pot    :  11154.53s CPU  11278.40s WALL (  114662 calls)
     h_psi:calbec :   1433.43s CPU   1448.97s WALL (  114662 calls)
     s_psi_bgrp   :    426.25s CPU    431.97s WALL (  231492 calls)


     PHONON       :  53651.15s CPU  70799.50s WALL


   This run was terminated on:  16:45:32   8May2025            

=------------------------------------------------------------------------------=
   JOB DONE.
=------------------------------------------------------------------------------=
