
     Program PWSCF v.7.3.1 starts on  7May2025 at 21: 2:52 

     This program is part of the open-source Quantum ESPRESSO suite
     for quantum simulation of materials; please cite
         "P. Giannozzi et al., J. Phys.:Condens. Matter 21 395502 (2009);
         "P. Giannozzi et al., J. Phys.:Condens. Matter 29 465901 (2017);
         "P. Giannozzi et al., J. Chem. Phys. 152 154105 (2020);
          URL http://www.quantum-espresso.org", 
     in publications or presentations arising from this work. More details at
     http://www.quantum-espresso.org/quote

     Parallel version (MPI & OpenMP), running on     384 processor cores
     Number of MPI processes:               384
     Threads/MPI process:                     1

     MPI processes distributed on     2 nodes
     338190 MiB available memory on the printing compute node when the environment starts

     Waiting for input...
     Reading input from standard input
Warning: card &CELL ignored
Warning: card / ignored
Warning: card &FCP ignored
Warning: card / ignored
Warning: card &RISM ignored
Warning: card / ignored

     Current dimensions of program PWSCF are:
     Max number of different atomic species (ntypx) = 10
     Max number of k-points (npk) =  40000
     Max angular momentum in pseudopotentials (lmaxx) =  4

     IMPORTANT: XC functional enforced from input :
     Exchange-correlation= PBE
                           (   1   4   3   4   0   0   0)
     Any further DFT definition will be discarded
     Please, verify this is what you really want

     Message from routine setup:
     using ibrav=0 with symmetry is DISCOURAGED, use correct ibrav instead

     K-points division:     npool     =      12
     R & G space division:  proc/nbgrp/npool/nimage =      32
     Subspace diagonalization in iterative solution of the eigenvalue problem:
     a serial algorithm will be used

     Message from routine divide_et_impera:
     suboptimal parallelization: some nodes have no k-points

     Parallelization info
     --------------------
     sticks:   dense  smooth     PW     G-vecs:    dense   smooth      PW
     Min         140     140     37                34374    34374    4725
     Max         141     141     38                34388    34388    4743
     Sum        4483    4483   1189              1100103  1100103  151427

     Using Slab Decomposition



     bravais-lattice index     =            0
     lattice parameter (alat)  =      12.7288  a.u.
     unit-cell volume          =    8140.0419 (a.u.)^3
     number of atoms/cell      =           22
     number of atomic types    =            2
     number of electrons       =       190.00
     number of Kohn-Sham states=          114
     kinetic-energy cutoff     =     100.0000  Ry
     charge density cutoff     =     400.0000  Ry
     scf convergence threshold =      1.0E-12
     mixing beta               =       0.7000
     number of iterations used =            8  plain     mixing
     Exchange-correlation= PBE
                           (   1   4   3   4   0   0   0)

     celldm(1)=  12.728776  celldm(2)=   0.000000  celldm(3)=   0.000000
     celldm(4)=   0.000000  celldm(5)=   0.000000  celldm(6)=   0.000000

     crystal axes: (cart. coord. in units of alat)
               a(1) = (   0.866025   0.500000   0.000000 )  
               a(2) = (  -0.866025   0.500000   0.000000 )  
               a(3) = (   0.000000   0.000000   4.557598 )  

     reciprocal axes: (cart. coord. in units 2 pi/alat)
               b(1) = (  0.577350  1.000000 -0.000000 )  
               b(2) = ( -0.577350  1.000000  0.000000 )  
               b(3) = (  0.000000 -0.000000  0.219414 )  


     PseudoPot. # 1 for Nb read from file:
     /scratch-shared/mroesner/Nb3X8_cDFPT/pp/Nb_ONCV_PBE-1.2.upf
     MD5 check sum: 2c750ac0b6910ff4cf0ab5f6c4124a64
     Pseudo is Norm-conserving, Zval = 13.0
     Generated using ONCVPSP code by D. R. Hamann
     Using radial grid of  602 points,  6 beta functions with: 
                l(1) =   0
                l(2) =   0
                l(3) =   1
                l(4) =   1
                l(5) =   2
                l(6) =   2

     PseudoPot. # 2 for Cl read from file:
     /scratch-shared/mroesner/Nb3X8_cDFPT/pp/Cl_ONCV_PBE-1.2.upf
     MD5 check sum: 0f993535b366f580ecbcdacce103c843
     Pseudo is Norm-conserving, Zval =  7.0
     Generated using ONCVPSP code by D. R. Hamann
     Using radial grid of  602 points,  4 beta functions with: 
                l(1) =   0
                l(2) =   0
                l(3) =   1
                l(4) =   1

     atomic species   valence    mass     pseudopotential
     Nb               13.00    92.90637     Nb( 1.00)
     Cl                7.00    35.45270     Cl( 1.00)

     12 Sym. Ops., with inversion, found


                                    s                        frac. trans.

      isym =  1     identity                                     

 cryst.   s( 1) = (     1          0          0      )
                  (     0          1          0      )
                  (     0          0          1      )

 cart.    s( 1) = (  1.0000000  0.0000000  0.0000000 )
                  ( -0.0000000  1.0000000  0.0000000 )
                  (  0.0000000  0.0000000  1.0000000 )


      isym =  2     180 deg rotation - cart. axis [0,1,0]        

 cryst.   s( 2) = (     0          1          0      )
                  (     1          0          0      )
                  (     0          0         -1      )

 cart.    s( 2) = ( -1.0000000  0.0000000  0.0000000 )
                  (  0.0000000  1.0000000  0.0000000 )
                  (  0.0000000  0.0000000 -1.0000000 )


      isym =  3     120 deg rotation - cryst. axis [0,0,1]       

 cryst.   s( 3) = (     0          1          0      )
                  (    -1         -1          0      )
                  (     0          0          1      )

 cart.    s( 3) = ( -0.5000000 -0.8660254  0.0000000 )
                  (  0.8660254 -0.5000000  0.0000000 )
                  (  0.0000000  0.0000000  1.0000000 )


      isym =  4     120 deg rotation - cryst. axis [0,0,-1]      

 cryst.   s( 4) = (    -1         -1          0      )
                  (     1          0          0      )
                  (     0          0          1      )

 cart.    s( 4) = ( -0.5000000  0.8660254  0.0000000 )
                  ( -0.8660254 -0.5000000  0.0000000 )
                  (  0.0000000  0.0000000  1.0000000 )


      isym =  5     180 deg rotation - cryst. axis [1,-1,0]      

 cryst.   s( 5) = (    -1         -1          0      )
                  (     0          1          0      )
                  (     0          0         -1      )

 cart.    s( 5) = (  0.5000000 -0.8660254  0.0000000 )
                  ( -0.8660254 -0.5000000  0.0000000 )
                  (  0.0000000  0.0000000 -1.0000000 )


      isym =  6     180 deg rotation - cryst. axis [2,1,0]       

 cryst.   s( 6) = (     1          0          0      )
                  (    -1         -1          0      )
                  (     0          0         -1      )

 cart.    s( 6) = (  0.5000000  0.8660254  0.0000000 )
                  (  0.8660254 -0.5000000  0.0000000 )
                  (  0.0000000  0.0000000 -1.0000000 )


      isym =  7     inversion                                    

 cryst.   s( 7) = (    -1          0          0      )
                  (     0         -1          0      )
                  (     0          0         -1      )

 cart.    s( 7) = ( -1.0000000 -0.0000000  0.0000000 )
                  (  0.0000000 -1.0000000  0.0000000 )
                  (  0.0000000  0.0000000 -1.0000000 )


      isym =  8     inv. 180 deg rotation - cart. axis [0,1,0]   

 cryst.   s( 8) = (     0         -1          0      )
                  (    -1          0          0      )
                  (     0          0          1      )

 cart.    s( 8) = (  1.0000000 -0.0000000  0.0000000 )
                  ( -0.0000000 -1.0000000  0.0000000 )
                  (  0.0000000  0.0000000  1.0000000 )


      isym =  9     inv. 120 deg rotation - cryst. axis [0,0,1]  

 cryst.   s( 9) = (     0         -1          0      )
                  (     1          1          0      )
                  (     0          0         -1      )

 cart.    s( 9) = (  0.5000000  0.8660254  0.0000000 )
                  ( -0.8660254  0.5000000  0.0000000 )
                  (  0.0000000  0.0000000 -1.0000000 )


      isym = 10     inv. 120 deg rotation - cryst. axis [0,0,-1] 

 cryst.   s(10) = (     1          1          0      )
                  (    -1          0          0      )
                  (     0          0         -1      )

 cart.    s(10) = (  0.5000000 -0.8660254  0.0000000 )
                  (  0.8660254  0.5000000  0.0000000 )
                  (  0.0000000  0.0000000 -1.0000000 )


      isym = 11     inv. 180 deg rotation - cryst. axis [1,-1,0] 

 cryst.   s(11) = (     1          1          0      )
                  (     0         -1          0      )
                  (     0          0          1      )

 cart.    s(11) = ( -0.5000000  0.8660254  0.0000000 )
                  (  0.8660254  0.5000000  0.0000000 )
                  (  0.0000000  0.0000000  1.0000000 )


      isym = 12     inv. 180 deg rotation - cryst. axis [2,1,0]  

 cryst.   s(12) = (    -1          0          0      )
                  (     1          1          0      )
                  (     0          0          1      )

 cart.    s(12) = ( -0.5000000 -0.8660254  0.0000000 )
                  ( -0.8660254  0.5000000  0.0000000 )
                  (  0.0000000  0.0000000  1.0000000 )


   Cartesian axes

     site n.     atom                  positions (alat units)
         1        Nb     tau(   1) = (   0.2399243  -0.0000000  -0.4627999  )
         2        Nb     tau(   2) = (  -0.1199621   0.2077805  -0.4627999  )
         3        Nb     tau(   3) = (  -0.1199621  -0.2077805  -0.4627999  )
         4        Nb     tau(   4) = (  -0.2399243   0.0000000   0.4627999  )
         5        Nb     tau(   5) = (   0.1199621  -0.2077805   0.4627999  )
         6        Nb     tau(   6) = (   0.1199621   0.2077805   0.4627999  )
         7        Cl     tau(   7) = (   0.0000000   0.0000000  -0.7370175  )
         8        Cl     tau(   8) = (  -0.8639318  -0.0000000  -0.6662208  )
         9        Cl     tau(   9) = (  -0.4340595  -0.2481869  -0.6662208  )
        10        Cl     tau(  10) = (  -0.4340595   0.2481869  -0.6662208  )
        11        Cl     tau(  11) = (   0.5773503   0.0000000  -0.2599342  )
        12        Cl     tau(  12) = (  -0.2863406   0.0000000  -0.2190158  )
        13        Cl     tau(  13) = (   0.1431703  -0.2479782  -0.2190158  )
        14        Cl     tau(  14) = (   0.1431703   0.2479782  -0.2190158  )
        15        Cl     tau(  15) = (   0.2863406  -0.0000000   0.2190158  )
        16        Cl     tau(  16) = (  -0.1431703   0.2479782   0.2190158  )
        17        Cl     tau(  17) = (  -0.1431703  -0.2479782   0.2190158  )
        18        Cl     tau(  18) = (  -0.5773503  -0.0000000   0.2599342  )
        19        Cl     tau(  19) = (   0.8639318   0.0000000   0.6662208  )
        20        Cl     tau(  20) = (   0.4340595   0.2481869   0.6662208  )
        21        Cl     tau(  21) = (   0.4340595  -0.2481869   0.6662208  )
        22        Cl     tau(  22) = (   0.0000000   0.0000000   0.7370175  )

     --------------------------------------------
     DFT-D3 Dispersion Correction (no 3-body):
     --------------------------------------------
       Reference C6 values for interpolation: 

         atom   Coordination number   C6
         Cl         0.000           184.69
         Cl         0.997           180.80
         Nb         0.000          2950.50
         Nb         1.954          1161.16
         Nb         2.922           857.79

       Values used:

         atom   Coordination number  R0_AB[au]  C6      C8
         Nb         8.254            3.647    857.79 111659.18
         Nb         8.254            3.647    857.79 111659.18
         Nb         8.254            3.647    857.79 111659.18
         Nb         8.254            3.647    857.79 111659.18
         Nb         8.254            3.647    857.79 111659.18
         Nb         8.254            3.647    857.79 111659.18
         Cl         3.137            2.933    180.80   7543.49
         Cl         2.249            2.933    180.80   7543.50
         Cl         2.249            2.933    180.80   7543.50
         Cl         2.249            2.933    180.80   7543.50
         Cl         3.105            2.933    180.80   7543.49
         Cl         2.302            2.933    180.80   7543.50
         Cl         2.302            2.933    180.80   7543.50
         Cl         2.302            2.933    180.80   7543.50
         Cl         2.302            2.933    180.80   7543.50
         Cl         2.302            2.933    180.80   7543.50
         Cl         2.302            2.933    180.80   7543.50
         Cl         3.105            2.933    180.80   7543.49
         Cl         2.249            2.933    180.80   7543.50
         Cl         2.249            2.933    180.80   7543.50
         Cl         2.249            2.933    180.80   7543.50
         Cl         3.137            2.933    180.80   7543.49

         Molecular C6 ( Ry / a.u.^6 ) =    150899.93


   Crystallographic axes

     site n.     atom                  positions (cryst. coord.)
         1        Nb     tau(   1) = (  0.1385203 -0.1385203 -0.1015447  )
         2        Nb     tau(   2) = (  0.1385203  0.2770407 -0.1015447  )
         3        Nb     tau(   3) = ( -0.2770407 -0.1385203 -0.1015447  )
         4        Nb     tau(   4) = ( -0.1385203  0.1385203  0.1015447  )
         5        Nb     tau(   5) = ( -0.1385203 -0.2770407  0.1015447  )
         6        Nb     tau(   6) = (  0.2770407  0.1385203  0.1015447  )
         7        Cl     tau(   7) = (  0.0000000  0.0000000 -0.1617118  )
         8        Cl     tau(   8) = ( -0.4987913  0.4987913 -0.1461780  )
         9        Cl     tau(   9) = ( -0.4987913  0.0024174 -0.1461780  )
        10        Cl     tau(  10) = ( -0.0024174  0.4987913 -0.1461780  )
        11        Cl     tau(  11) = (  0.3333333 -0.3333333 -0.0570332  )
        12        Cl     tau(  12) = ( -0.1653188  0.1653188 -0.0480551  )
        13        Cl     tau(  13) = ( -0.1653188 -0.3306376 -0.0480551  )
        14        Cl     tau(  14) = (  0.3306376  0.1653188 -0.0480551  )
        15        Cl     tau(  15) = (  0.1653188 -0.1653188  0.0480551  )
        16        Cl     tau(  16) = (  0.1653188  0.3306376  0.0480551  )
        17        Cl     tau(  17) = ( -0.3306376 -0.1653188  0.0480551  )
        18        Cl     tau(  18) = ( -0.3333333  0.3333333  0.0570332  )
        19        Cl     tau(  19) = (  0.4987913 -0.4987913  0.1461780  )
        20        Cl     tau(  20) = (  0.4987913 -0.0024174  0.1461780  )
        21        Cl     tau(  21) = (  0.0024174 -0.4987913  0.1461780  )
        22        Cl     tau(  22) = (  0.0000000  0.0000000  0.1617118  )

     number of k points=     7  Gaussian smearing, width (Ry)=  0.0037
                       cart. coord. in units 2pi/alat
        k(    1) = (   0.0000000   0.0000000   0.0000000), wk =   0.0555556
        k(    2) = (  -0.0962250   0.1666667   0.0000000), wk =   0.3333333
        k(    3) = (  -0.1924501   0.3333333   0.0000000), wk =   0.3333333
        k(    4) = (   0.2886751  -0.5000000   0.0000000), wk =   0.1666667
        k(    5) = (  -0.0000000   0.3333333   0.0000000), wk =   0.3333333
        k(    6) = (  -0.0962250   0.5000000   0.0000000), wk =   0.6666667
        k(    7) = (  -0.0000000   0.6666667   0.0000000), wk =   0.1111111

                       cryst. coord.
        k(    1) = (   0.0000000   0.0000000   0.0000000), wk =   0.0555556
        k(    2) = (  -0.0000000   0.1666667   0.0000000), wk =   0.3333333
        k(    3) = (  -0.0000000   0.3333333   0.0000000), wk =   0.3333333
        k(    4) = (   0.0000000  -0.5000000   0.0000000), wk =   0.1666667
        k(    5) = (   0.1666667   0.1666667   0.0000000), wk =   0.3333333
        k(    6) = (   0.1666667   0.3333333   0.0000000), wk =   0.6666667
        k(    7) = (   0.3333333   0.3333333   0.0000000), wk =   0.1111111

     Dense  grid:  1100103 G-vectors     FFT dimensions: (  81,  81, 375)

     Dynamical RAM for                 wfc:       7.47 MB

     Dynamical RAM for     wfc (w. buffer):       7.47 MB

     Dynamical RAM for           str. fact:       1.05 MB

     Dynamical RAM for           local pot:       0.00 MB

     Dynamical RAM for          nlocal pot:      15.47 MB

     Dynamical RAM for                qrad:       3.21 MB

     Dynamical RAM for          rho,v,vnew:       3.38 MB

     Dynamical RAM for               rhoin:       1.13 MB

     Dynamical RAM for            rho*nmix:       8.39 MB

     Dynamical RAM for           G-vectors:       2.23 MB

     Dynamical RAM for          h,s,v(r/c):       2.38 MB

     Dynamical RAM for          <psi|beta>:       0.41 MB

     Dynamical RAM for                 psi:      14.94 MB

     Dynamical RAM for                hpsi:      14.94 MB

     Dynamical RAM for      wfcinit/wfcrot:      15.24 MB

     Estimated static dynamical RAM per process >      38.51 MB

     Estimated max dynamical RAM per process >      79.57 MB

     Estimated total dynamical RAM >      26.95 GB

     Initial potential from superposition of free atoms

     starting charge     189.2322, renormalised to     190.0000

     negative rho (up, down):  1.388E-03 0.000E+00
     Starting wfcs are random

     total cpu time spent up to now is        2.9 secs

     per-process dynamical memory:   190.4 Mb

     Self-consistent Calculation

     iteration #  1     ecut=   100.00 Ry     beta= 0.70
     Davidson diagonalization with overlap

---- Real-time Memory Report at c_bands before calling an iterative solver
           260 MiB given to the printing process from OS
           185 MiB allocation reported by mallinfo(arena+hblkhd)
        324621 MiB available memory on the node where the printing process lives
------------------
     ethr =  1.00E-02,  avg # of iterations = 16.3

     Threshold (ethr) on eigenvalues was too large:
     Diagonalizing with lowered threshold

     Davidson diagonalization with overlap

---- Real-time Memory Report at c_bands before calling an iterative solver
           303 MiB given to the printing process from OS
           187 MiB allocation reported by mallinfo(arena+hblkhd)
        322637 MiB available memory on the node where the printing process lives
------------------
     ethr =  3.37E-04,  avg # of iterations = 12.4

     negative rho (up, down):  2.312E-04 0.000E+00

     total cpu time spent up to now is       10.3 secs

     total energy              =   -1170.01146496 Ry
     estimated scf accuracy    <       0.63295290 Ry

     iteration #  2     ecut=   100.00 Ry     beta= 0.70
     Davidson diagonalization with overlap

---- Real-time Memory Report at c_bands before calling an iterative solver
           304 MiB given to the printing process from OS
           182 MiB allocation reported by mallinfo(arena+hblkhd)
        325687 MiB available memory on the node where the printing process lives
------------------
     ethr =  3.33E-04,  avg # of iterations =  3.6

     negative rho (up, down):  1.072E-04 0.000E+00

     total cpu time spent up to now is       11.9 secs

     total energy              =   -1170.14152748 Ry
     estimated scf accuracy    <       0.28561924 Ry

     iteration #  3     ecut=   100.00 Ry     beta= 0.70
     Davidson diagonalization with overlap

---- Real-time Memory Report at c_bands before calling an iterative solver
           312 MiB given to the printing process from OS
           183 MiB allocation reported by mallinfo(arena+hblkhd)
        325617 MiB available memory on the node where the printing process lives
------------------
     ethr =  1.50E-04,  avg # of iterations =  3.7

     negative rho (up, down):  6.208E-05 0.000E+00

     total cpu time spent up to now is       13.5 secs

     total energy              =   -1170.18829348 Ry
     estimated scf accuracy    <       0.12509633 Ry

     iteration #  4     ecut=   100.00 Ry     beta= 0.70
     Davidson diagonalization with overlap

---- Real-time Memory Report at c_bands before calling an iterative solver
           313 MiB given to the printing process from OS
           184 MiB allocation reported by mallinfo(arena+hblkhd)
        325640 MiB available memory on the node where the printing process lives
------------------
     ethr =  6.58E-05,  avg # of iterations =  4.6

     negative rho (up, down):  2.022E-05 0.000E+00

     total cpu time spent up to now is       15.0 secs

     total energy              =   -1170.21360244 Ry
     estimated scf accuracy    <       0.02512863 Ry

     iteration #  5     ecut=   100.00 Ry     beta= 0.70
     Davidson diagonalization with overlap

---- Real-time Memory Report at c_bands before calling an iterative solver
           315 MiB given to the printing process from OS
           185 MiB allocation reported by mallinfo(arena+hblkhd)
        325554 MiB available memory on the node where the printing process lives
------------------
     ethr =  1.32E-05,  avg # of iterations =  5.3

     negative rho (up, down):  3.500E-06 0.000E+00

     total cpu time spent up to now is       16.7 secs

     total energy              =   -1170.21764770 Ry
     estimated scf accuracy    <       0.00812641 Ry

     iteration #  6     ecut=   100.00 Ry     beta= 0.70
     Davidson diagonalization with overlap

---- Real-time Memory Report at c_bands before calling an iterative solver
           315 MiB given to the printing process from OS
           186 MiB allocation reported by mallinfo(arena+hblkhd)
        325555 MiB available memory on the node where the printing process lives
------------------
     ethr =  4.28E-06,  avg # of iterations =  6.1

     negative rho (up, down):  1.618E-07 0.000E+00

     total cpu time spent up to now is       18.4 secs

     total energy              =   -1170.21918941 Ry
     estimated scf accuracy    <       0.00068757 Ry

     iteration #  7     ecut=   100.00 Ry     beta= 0.70
     Davidson diagonalization with overlap

---- Real-time Memory Report at c_bands before calling an iterative solver
           317 MiB given to the printing process from OS
           187 MiB allocation reported by mallinfo(arena+hblkhd)
        325515 MiB available memory on the node where the printing process lives
------------------
     ethr =  3.62E-07,  avg # of iterations =  7.9

     total cpu time spent up to now is       20.2 secs

     total energy              =   -1170.21933806 Ry
     estimated scf accuracy    <       0.00002600 Ry

     iteration #  8     ecut=   100.00 Ry     beta= 0.70
     Davidson diagonalization with overlap

---- Real-time Memory Report at c_bands before calling an iterative solver
           317 MiB given to the printing process from OS
           188 MiB allocation reported by mallinfo(arena+hblkhd)
        325496 MiB available memory on the node where the printing process lives
------------------
     ethr =  1.37E-08,  avg # of iterations =  8.7

     total cpu time spent up to now is       22.3 secs

     total energy              =   -1170.21934687 Ry
     estimated scf accuracy    <       0.00000507 Ry

     iteration #  9     ecut=   100.00 Ry     beta= 0.70
     Davidson diagonalization with overlap

---- Real-time Memory Report at c_bands before calling an iterative solver
           321 MiB given to the printing process from OS
           189 MiB allocation reported by mallinfo(arena+hblkhd)
        325481 MiB available memory on the node where the printing process lives
------------------
     ethr =  2.67E-09,  avg # of iterations =  5.0

     total cpu time spent up to now is       24.0 secs

     total energy              =   -1170.21934791 Ry
     estimated scf accuracy    <       0.00000060 Ry

     iteration # 10     ecut=   100.00 Ry     beta= 0.70
     Davidson diagonalization with overlap

---- Real-time Memory Report at c_bands before calling an iterative solver
           321 MiB given to the printing process from OS
           190 MiB allocation reported by mallinfo(arena+hblkhd)
        325418 MiB available memory on the node where the printing process lives
------------------
     ethr =  3.16E-10,  avg # of iterations =  8.1

     total cpu time spent up to now is       25.8 secs

     total energy              =   -1170.21934802 Ry
     estimated scf accuracy    <       0.00000004 Ry

     iteration # 11     ecut=   100.00 Ry     beta= 0.70
     Davidson diagonalization with overlap

---- Real-time Memory Report at c_bands before calling an iterative solver
           323 MiB given to the printing process from OS
           190 MiB allocation reported by mallinfo(arena+hblkhd)
        325449 MiB available memory on the node where the printing process lives
------------------
     ethr =  2.08E-11,  avg # of iterations =  7.7

     total cpu time spent up to now is       27.8 secs

     total energy              =   -1170.21934803 Ry
     estimated scf accuracy    <          6.2E-09 Ry

     iteration # 12     ecut=   100.00 Ry     beta= 0.70
     Davidson diagonalization with overlap

---- Real-time Memory Report at c_bands before calling an iterative solver
           323 MiB given to the printing process from OS
           190 MiB allocation reported by mallinfo(arena+hblkhd)
        325508 MiB available memory on the node where the printing process lives
------------------
     ethr =  3.28E-12,  avg # of iterations =  8.0

     total cpu time spent up to now is       30.0 secs

     total energy              =   -1170.21934803 Ry
     estimated scf accuracy    <          9.5E-10 Ry

     iteration # 13     ecut=   100.00 Ry     beta= 0.70
     Davidson diagonalization with overlap

---- Real-time Memory Report at c_bands before calling an iterative solver
           323 MiB given to the printing process from OS
           190 MiB allocation reported by mallinfo(arena+hblkhd)
        325493 MiB available memory on the node where the printing process lives
------------------
     ethr =  4.99E-13,  avg # of iterations =  7.6

     total cpu time spent up to now is       31.8 secs

     total energy              =   -1170.21934804 Ry
     estimated scf accuracy    <          4.0E-11 Ry

     iteration # 14     ecut=   100.00 Ry     beta= 0.70
     Davidson diagonalization with overlap

---- Real-time Memory Report at c_bands before calling an iterative solver
           323 MiB given to the printing process from OS
           190 MiB allocation reported by mallinfo(arena+hblkhd)
        325521 MiB available memory on the node where the printing process lives
------------------
     ethr =  1.00E-13,  avg # of iterations =  7.1

     total cpu time spent up to now is       33.5 secs

     total energy              =   -1170.21934804 Ry
     estimated scf accuracy    <          1.5E-11 Ry

     iteration # 15     ecut=   100.00 Ry     beta= 0.70
     Davidson diagonalization with overlap

---- Real-time Memory Report at c_bands before calling an iterative solver
           323 MiB given to the printing process from OS
           190 MiB allocation reported by mallinfo(arena+hblkhd)
        325502 MiB available memory on the node where the printing process lives
------------------
     ethr =  1.00E-13,  avg # of iterations =  1.0

     total cpu time spent up to now is       34.6 secs

     total energy              =   -1170.21934804 Ry
     estimated scf accuracy    <          8.9E-12 Ry

     iteration # 16     ecut=   100.00 Ry     beta= 0.70
     Davidson diagonalization with overlap

---- Real-time Memory Report at c_bands before calling an iterative solver
           323 MiB given to the printing process from OS
           190 MiB allocation reported by mallinfo(arena+hblkhd)
        325506 MiB available memory on the node where the printing process lives
------------------
     ethr =  1.00E-13,  avg # of iterations =  1.0

     total cpu time spent up to now is       35.5 secs

     End of self-consistent calculation

          k = 0.0000 0.0000 0.0000 (137531 PWs)   bands (ev):

   -55.5967 -55.5967 -55.4933 -55.4933 -55.4933 -55.4933 -32.0724 -32.0724
   -31.8312 -31.8312 -31.8311 -31.8311 -31.8095 -31.8094 -31.6710 -31.6710
   -31.6710 -31.6710 -31.4241 -31.4241 -31.2682 -31.2682 -31.2682 -31.2682
   -17.1749 -17.1541 -16.6977 -16.5480 -16.1308 -16.1154 -16.0623 -16.0623
   -15.9815 -15.9815 -15.7968 -15.7655 -15.4300 -15.4300 -15.4261 -15.4261
    -6.7651  -6.7651  -6.7006  -6.7006  -6.4818  -6.3100  -6.2241  -6.1890
    -5.8930  -5.8080  -5.8080  -5.7641  -5.7641  -5.5296  -5.3556  -5.3488
    -5.3189  -5.3189  -5.0098  -5.0098  -4.7439  -4.6661  -4.5170  -4.5170
    -4.5015  -4.5015  -4.1444  -4.0807  -4.0291  -4.0291  -3.9635  -3.9635
    -3.8028  -3.8028  -3.7206  -3.7062  -3.6686  -3.6686  -3.6120  -3.2776
    -3.0390  -3.0390  -2.9852  -2.9852  -2.4134  -2.4134  -2.4042  -2.4042
    -1.4200  -1.3214  -0.8225  -0.8225  -0.7859  -0.7859   0.4421   0.6378
     1.3234   1.3234   1.3256   1.3256   2.2280   2.2894   2.2894   2.3291
     2.3291   2.4373   2.6993   2.7125   2.7125   2.7293   2.7293   2.7747
     3.0049   3.0049

     occupation numbers 
     1.0000   1.0000   1.0000   1.0000   1.0000   1.0000   1.0000   1.0000
     1.0000   1.0000   1.0000   1.0000   1.0000   1.0000   1.0000   1.0000
     1.0000   1.0000   1.0000   1.0000   1.0000   1.0000   1.0000   1.0000
     1.0000   1.0000   1.0000   1.0000   1.0000   1.0000   1.0000   1.0000
     1.0000   1.0000   1.0000   1.0000   1.0000   1.0000   1.0000   1.0000
     1.0000   1.0000   1.0000   1.0000   1.0000   1.0000   1.0000   1.0000
     1.0000   1.0000   1.0000   1.0000   1.0000   1.0000   1.0000   1.0000
     1.0000   1.0000   1.0000   1.0000   1.0000   1.0000   1.0000   1.0000
     1.0000   1.0000   1.0000   1.0000   1.0000   1.0000   1.0000   1.0000
     1.0000   1.0000   1.0000   1.0000   1.0000   1.0000   1.0000   1.0000
     1.0000   1.0000   1.0000   1.0000   1.0000   1.0000   1.0000   1.0000
     1.0000   1.0000   1.0000   1.0000   1.0000   1.0000   0.6991   0.0000
     0.0000   0.0000   0.0000   0.0000   0.0000   0.0000   0.0000   0.0000
     0.0000   0.0000   0.0000   0.0000   0.0000   0.0000   0.0000   0.0000
     0.0000   0.0000

          k =-0.0962 0.1667 0.0000 (137449 PWs)   bands (ev):

   -55.5964 -55.5964 -55.4936 -55.4936 -55.4933 -55.4933 -32.0661 -32.0661
   -31.8300 -31.8300 -31.8264 -31.8264 -31.8078 -31.8077 -31.6728 -31.6728
   -31.6712 -31.6711 -31.4274 -31.4274 -31.2768 -31.2768 -31.2700 -31.2700
   -17.1489 -17.1326 -16.6747 -16.5266 -16.1559 -16.1381 -16.0711 -16.0599
   -16.0044 -15.9761 -15.7851 -15.7567 -15.4595 -15.4554 -15.4340 -15.4308
    -6.6718  -6.6572  -6.6243  -6.6160  -6.3310  -6.2857  -6.2113  -6.0851
    -5.9404  -5.8668  -5.7816  -5.7349  -5.6046  -5.5153  -5.3987  -5.3349
    -5.2754  -5.2284  -5.0147  -4.9991  -4.7109  -4.6604  -4.6286  -4.5778
    -4.5067  -4.4868  -4.2745  -4.2455  -4.1402  -4.0723  -3.9996  -3.9175
    -3.8585  -3.7914  -3.7609  -3.7590  -3.6780  -3.6355  -3.6313  -3.3057
    -3.1968  -3.1025  -3.0683  -2.9828  -2.6263  -2.6020  -2.4564  -2.4296
    -1.4651  -1.3906  -0.8112  -0.7837  -0.7765  -0.7575   0.3971   0.6198
     1.3378   1.3429   1.3557   1.3614   2.1681   2.1911   2.2415   2.2487
     2.2831   2.3736   2.4918   2.5557   2.6361   2.6768   2.7147   2.7534
     3.0614   3.1328

     occupation numbers 
     1.0000   1.0000   1.0000   1.0000   1.0000   1.0000   1.0000   1.0000
     1.0000   1.0000   1.0000   1.0000   1.0000   1.0000   1.0000   1.0000
     1.0000   1.0000   1.0000   1.0000   1.0000   1.0000   1.0000   1.0000
     1.0000   1.0000   1.0000   1.0000   1.0000   1.0000   1.0000   1.0000
     1.0000   1.0000   1.0000   1.0000   1.0000   1.0000   1.0000   1.0000
     1.0000   1.0000   1.0000   1.0000   1.0000   1.0000   1.0000   1.0000
     1.0000   1.0000   1.0000   1.0000   1.0000   1.0000   1.0000   1.0000
     1.0000   1.0000   1.0000   1.0000   1.0000   1.0000   1.0000   1.0000
     1.0000   1.0000   1.0000   1.0000   1.0000   1.0000   1.0000   1.0000
     1.0000   1.0000   1.0000   1.0000   1.0000   1.0000   1.0000   1.0000
     1.0000   1.0000   1.0000   1.0000   1.0000   1.0000   1.0000   1.0000
     1.0000   1.0000   1.0000   1.0000   1.0000   1.0000   0.9635   0.0000
     0.0000   0.0000   0.0000   0.0000   0.0000   0.0000   0.0000   0.0000
     0.0000   0.0000   0.0000   0.0000   0.0000   0.0000   0.0000   0.0000
     0.0000   0.0000

          k =-0.1925 0.3333 0.0000 (137535 PWs)   bands (ev):

   -55.5958 -55.5958 -55.4943 -55.4943 -55.4933 -55.4933 -32.0533 -32.0533
   -31.8273 -31.8273 -31.8165 -31.8165 -31.8044 -31.8043 -31.6767 -31.6766
   -31.6716 -31.6715 -31.4345 -31.4345 -31.2946 -31.2946 -31.2733 -31.2733
   -17.0961 -17.0889 -16.5995 -16.4675 -16.2653 -16.1839 -16.0806 -16.0550
   -16.0458 -15.9651 -15.7557 -15.7397 -15.5195 -15.5167 -15.4420 -15.4404
    -6.4571  -6.4464  -6.4381  -6.4184  -6.2900  -6.2087  -5.9408  -5.8679
    -5.8519  -5.7470  -5.6828  -5.6658  -5.4488  -5.4335  -5.3863  -5.3753
    -5.2734  -5.1748  -5.1342  -4.9846  -4.8664  -4.7408  -4.6634  -4.5801
    -4.5527  -4.4900  -4.4779  -4.4355  -4.3429  -4.2312  -4.1208  -4.0222
    -3.9276  -3.9073  -3.8960  -3.8253  -3.6444  -3.6163  -3.5717  -3.5257
    -3.3886  -3.2401  -3.1370  -3.0332  -2.9877  -2.9692  -2.5203  -2.4840
    -1.5438  -1.5130  -0.7987  -0.7758  -0.7162  -0.6969   0.2874   0.5494
     1.3650   1.3722   1.4267   1.4435   1.9707   2.0483   2.1007   2.1422
     2.1685   2.1901   2.3527   2.4581   2.6542   2.6711   2.6991   2.7149
     3.0104   3.0605

     occupation numbers 
     1.0000   1.0000   1.0000   1.0000   1.0000   1.0000   1.0000   1.0000
     1.0000   1.0000   1.0000   1.0000   1.0000   1.0000   1.0000   1.0000
     1.0000   1.0000   1.0000   1.0000   1.0000   1.0000   1.0000   1.0000
     1.0000   1.0000   1.0000   1.0000   1.0000   1.0000   1.0000   1.0000
     1.0000   1.0000   1.0000   1.0000   1.0000   1.0000   1.0000   1.0000
     1.0000   1.0000   1.0000   1.0000   1.0000   1.0000   1.0000   1.0000
     1.0000   1.0000   1.0000   1.0000   1.0000   1.0000   1.0000   1.0000
     1.0000   1.0000   1.0000   1.0000   1.0000   1.0000   1.0000   1.0000
     1.0000   1.0000   1.0000   1.0000   1.0000   1.0000   1.0000   1.0000
     1.0000   1.0000   1.0000   1.0000   1.0000   1.0000   1.0000   1.0000
     1.0000   1.0000   1.0000   1.0000   1.0000   1.0000   1.0000   1.0000
     1.0000   1.0000   1.0000   1.0000   1.0000   1.0000   1.0000   0.0060
     0.0000   0.0000   0.0000   0.0000   0.0000   0.0000   0.0000   0.0000
     0.0000   0.0000   0.0000   0.0000   0.0000   0.0000   0.0000   0.0000
     0.0000   0.0000

          k = 0.2887-0.5000 0.0000 (137556 PWs)   bands (ev):

   -55.5955 -55.5955 -55.4946 -55.4946 -55.4933 -55.4933 -32.0468 -32.0468
   -31.8257 -31.8257 -31.8114 -31.8114 -31.8026 -31.8025 -31.6787 -31.6787
   -31.6718 -31.6718 -31.4383 -31.4383 -31.3037 -31.3037 -31.2748 -31.2748
   -17.0697 -17.0669 -16.4892 -16.4692 -16.3306 -16.2451 -16.0851 -16.0605
   -16.0525 -15.9595 -15.7351 -15.7309 -15.5536 -15.5483 -15.4460 -15.4454
    -6.4013  -6.3943  -6.3646  -6.3295  -6.0869  -5.9973  -5.8768  -5.8597
    -5.7482  -5.6704  -5.6010  -5.5672  -5.4096  -5.3885  -5.3861  -5.3142
    -5.2560  -5.2106  -5.0854  -5.0080  -4.9067  -4.8504  -4.8104  -4.6974
    -4.6463  -4.6145  -4.4655  -4.4582  -4.3157  -4.3121  -4.2283  -4.1821
    -4.0839  -3.9807  -3.9654  -3.9112  -3.6006  -3.5562  -3.5497  -3.5373
    -3.3840  -3.2703  -3.1870  -3.1776  -3.1735  -3.0825  -2.5475  -2.5046
    -1.5746  -1.5718  -0.7941  -0.7879  -0.6819  -0.6687   0.2243   0.5016
     1.3823   1.3872   1.4688   1.4895   1.8872   1.9583   1.9933   2.0999
     2.1389   2.1469   2.3143   2.4269   2.6520   2.6662   2.6798   2.7450
     2.9440   3.0393

     occupation numbers 
     1.0000   1.0000   1.0000   1.0000   1.0000   1.0000   1.0000   1.0000
     1.0000   1.0000   1.0000   1.0000   1.0000   1.0000   1.0000   1.0000
     1.0000   1.0000   1.0000   1.0000   1.0000   1.0000   1.0000   1.0000
     1.0000   1.0000   1.0000   1.0000   1.0000   1.0000   1.0000   1.0000
     1.0000   1.0000   1.0000   1.0000   1.0000   1.0000   1.0000   1.0000
     1.0000   1.0000   1.0000   1.0000   1.0000   1.0000   1.0000   1.0000
     1.0000   1.0000   1.0000   1.0000   1.0000   1.0000   1.0000   1.0000
     1.0000   1.0000   1.0000   1.0000   1.0000   1.0000   1.0000   1.0000
     1.0000   1.0000   1.0000   1.0000   1.0000   1.0000   1.0000   1.0000
     1.0000   1.0000   1.0000   1.0000   1.0000   1.0000   1.0000   1.0000
     1.0000   1.0000   1.0000   1.0000   1.0000   1.0000   1.0000   1.0000
     1.0000   1.0000   1.0000   1.0000   1.0000   1.0000   1.0000   0.1227
     0.0000   0.0000   0.0000   0.0000   0.0000   0.0000   0.0000   0.0000
     0.0000   0.0000   0.0000   0.0000   0.0000   0.0000   0.0000   0.0000
     0.0000   0.0000

          k =-0.0000 0.3333 0.0000 (137410 PWs)   bands (ev):

   -55.5959 -55.5959 -55.4941 -55.4941 -55.4933 -55.4933 -32.0565 -32.0565
   -31.8275 -31.8275 -31.8198 -31.8197 -31.8052 -31.8052 -31.6754 -31.6754
   -31.6717 -31.6717 -31.4326 -31.4326 -31.2889 -31.2889 -31.2736 -31.2736
   -17.1095 -17.0999 -16.6253 -16.4851 -16.2077 -16.1823 -16.1000 -16.0641
   -16.0167 -15.9673 -15.7627 -15.7424 -15.5124 -15.5085 -15.4325 -15.4324
    -6.5108  -6.5027  -6.4923  -6.4635  -6.2464  -6.2418  -6.0702  -5.9264
    -5.8943  -5.7838  -5.7805  -5.6188  -5.4965  -5.4701  -5.4125  -5.3396
    -5.2543  -5.1574  -5.0520  -5.0088  -4.8106  -4.7198  -4.6538  -4.6116
    -4.5320  -4.5202  -4.4001  -4.3976  -4.3099  -4.2818  -4.0560  -3.9038
    -3.8787  -3.8052  -3.8034  -3.7694  -3.7280  -3.7243  -3.5510  -3.4167
    -3.3239  -3.3139  -3.1672  -3.0673  -2.8312  -2.8081  -2.5503  -2.5143
    -1.5135  -1.4788  -0.7984  -0.7885  -0.7201  -0.7122   0.3274   0.5834
     1.3161   1.3177   1.4511   1.4540   2.0414   2.0731   2.1554   2.1579
     2.2515   2.2605   2.3761   2.4454   2.5650   2.5867   2.6791   2.7515
     3.0711   3.1059

     occupation numbers 
     1.0000   1.0000   1.0000   1.0000   1.0000   1.0000   1.0000   1.0000
     1.0000   1.0000   1.0000   1.0000   1.0000   1.0000   1.0000   1.0000
     1.0000   1.0000   1.0000   1.0000   1.0000   1.0000   1.0000   1.0000
     1.0000   1.0000   1.0000   1.0000   1.0000   1.0000   1.0000   1.0000
     1.0000   1.0000   1.0000   1.0000   1.0000   1.0000   1.0000   1.0000
     1.0000   1.0000   1.0000   1.0000   1.0000   1.0000   1.0000   1.0000
     1.0000   1.0000   1.0000   1.0000   1.0000   1.0000   1.0000   1.0000
     1.0000   1.0000   1.0000   1.0000   1.0000   1.0000   1.0000   1.0000
     1.0000   1.0000   1.0000   1.0000   1.0000   1.0000   1.0000   1.0000
     1.0000   1.0000   1.0000   1.0000   1.0000   1.0000   1.0000   1.0000
     1.0000   1.0000   1.0000   1.0000   1.0000   1.0000   1.0000   1.0000
     1.0000   1.0000   1.0000   1.0000   1.0000   1.0000   0.9999   0.0003
     0.0000   0.0000   0.0000   0.0000   0.0000   0.0000   0.0000   0.0000
     0.0000   0.0000   0.0000   0.0000   0.0000   0.0000   0.0000   0.0000
     0.0000   0.0000

          k =-0.0962 0.5000 0.0000 (137449 PWs)   bands (ev):

   -55.5955 -55.5955 -55.4946 -55.4946 -55.4933 -55.4933 -32.0466 -32.0465
   -31.8239 -31.8239 -31.8139 -31.8139 -31.8026 -31.8025 -31.6778 -31.6778
   -31.6726 -31.6726 -31.4378 -31.4378 -31.3009 -31.3009 -31.2777 -31.2777
   -17.0703 -17.0670 -16.5233 -16.4345 -16.3105 -16.2199 -16.1499 -16.0976
   -15.9992 -15.9564 -15.7276 -15.7210 -15.5749 -15.5741 -15.4324 -15.4288
    -6.4257  -6.4156  -6.2816  -6.2711  -6.1402  -6.0200  -5.9321  -5.8672
    -5.8168  -5.6991  -5.5814  -5.4788  -5.4473  -5.3681  -5.3230  -5.2892
    -5.2462  -5.1837  -5.1586  -5.0553  -4.9207  -4.8475  -4.7400  -4.7096
    -4.6413  -4.6117  -4.5423  -4.4152  -4.3601  -4.2825  -4.2457  -4.1484
    -4.0536  -4.0065  -3.7877  -3.7746  -3.6740  -3.6504  -3.6371  -3.5819
    -3.3914  -3.3199  -3.2490  -3.1249  -3.0828  -2.9902  -2.6494  -2.5882
    -1.5499  -1.5408  -0.7933  -0.7868  -0.6927  -0.6724   0.2598   0.5437
     1.3027   1.3045   1.5369   1.5429   1.9431   1.9851   2.0418   2.1390
     2.1733   2.1872   2.2533   2.3698   2.4796   2.5065   2.6924   2.7805
     3.0716   3.0953

     occupation numbers 
     1.0000   1.0000   1.0000   1.0000   1.0000   1.0000   1.0000   1.0000
     1.0000   1.0000   1.0000   1.0000   1.0000   1.0000   1.0000   1.0000
     1.0000   1.0000   1.0000   1.0000   1.0000   1.0000   1.0000   1.0000
     1.0000   1.0000   1.0000   1.0000   1.0000   1.0000   1.0000   1.0000
     1.0000   1.0000   1.0000   1.0000   1.0000   1.0000   1.0000   1.0000
     1.0000   1.0000   1.0000   1.0000   1.0000   1.0000   1.0000   1.0000
     1.0000   1.0000   1.0000   1.0000   1.0000   1.0000   1.0000   1.0000
     1.0000   1.0000   1.0000   1.0000   1.0000   1.0000   1.0000   1.0000
     1.0000   1.0000   1.0000   1.0000   1.0000   1.0000   1.0000   1.0000
     1.0000   1.0000   1.0000   1.0000   1.0000   1.0000   1.0000   1.0000
     1.0000   1.0000   1.0000   1.0000   1.0000   1.0000   1.0000   1.0000
     1.0000   1.0000   1.0000   1.0000   1.0000   1.0000   1.0000   0.0093
     0.0000   0.0000   0.0000   0.0000   0.0000   0.0000   0.0000   0.0000
     0.0000   0.0000   0.0000   0.0000   0.0000   0.0000   0.0000   0.0000
     0.0000   0.0000

          k =-0.0000 0.6667 0.0000 (137418 PWs)   bands (ev):

   -55.5953 -55.5953 -55.4948 -55.4948 -55.4933 -55.4933 -32.0430 -32.0430
   -31.8189 -31.8189 -31.8164 -31.8164 -31.8017 -31.8016 -31.6774 -31.6774
   -31.6740 -31.6740 -31.4392 -31.4392 -31.3022 -31.3022 -31.2819 -31.2819
   -17.0581 -17.0562 -16.4358 -16.4358 -16.3510 -16.1933 -16.1933 -16.1723
   -15.9620 -15.9620 -15.6933 -15.6933 -15.6261 -15.6261 -15.4239 -15.4178
    -6.4245  -6.3892  -6.1475  -6.1475  -6.0193  -6.0193  -5.9107  -5.8416
    -5.8416  -5.7083  -5.5752  -5.3999  -5.3999  -5.3924  -5.2969  -5.2969
    -5.1608  -5.0925  -5.0925  -5.0218  -5.0218  -4.9265  -4.8130  -4.8130
    -4.6770  -4.5435  -4.5435  -4.4644  -4.4403  -4.4403  -4.1916  -4.1916
    -4.1436  -3.9687  -3.8145  -3.8145  -3.7713  -3.7713  -3.6279  -3.5845
    -3.3377  -3.3377  -3.1736  -3.1736  -3.0525  -3.0525  -2.7941  -2.6961
    -1.5484  -1.5253  -0.7840  -0.7840  -0.6882  -0.6882   0.2686   0.5666
     1.2597   1.2597   1.5944   1.5944   1.9601   2.0525   2.0525   2.1434
     2.1434   2.2142   2.2476   2.2476   2.3219   2.3219   2.7228   2.8186
     3.1706   3.1918

     occupation numbers 
     1.0000   1.0000   1.0000   1.0000   1.0000   1.0000   1.0000   1.0000
     1.0000   1.0000   1.0000   1.0000   1.0000   1.0000   1.0000   1.0000
     1.0000   1.0000   1.0000   1.0000   1.0000   1.0000   1.0000   1.0000
     1.0000   1.0000   1.0000   1.0000   1.0000   1.0000   1.0000   1.0000
     1.0000   1.0000   1.0000   1.0000   1.0000   1.0000   1.0000   1.0000
     1.0000   1.0000   1.0000   1.0000   1.0000   1.0000   1.0000   1.0000
     1.0000   1.0000   1.0000   1.0000   1.0000   1.0000   1.0000   1.0000
     1.0000   1.0000   1.0000   1.0000   1.0000   1.0000   1.0000   1.0000
     1.0000   1.0000   1.0000   1.0000   1.0000   1.0000   1.0000   1.0000
     1.0000   1.0000   1.0000   1.0000   1.0000   1.0000   1.0000   1.0000
     1.0000   1.0000   1.0000   1.0000   1.0000   1.0000   1.0000   1.0000
     1.0000   1.0000   1.0000   1.0000   1.0000   1.0000   1.0000   0.0013
     0.0000   0.0000   0.0000   0.0000   0.0000   0.0000   0.0000   0.0000
     0.0000   0.0000   0.0000   0.0000   0.0000   0.0000   0.0000   0.0000
     0.0000   0.0000

     the Fermi energy is     0.4605 ev

!    total energy              =   -1170.21934803 Ry
     estimated scf accuracy    <          8.3E-13 Ry
     smearing contrib. (-TS)   =      -0.00026811 Ry
     internal energy E=F+TS    =   -1170.21907993 Ry

     The total energy is F=E-TS. E is the sum of the following terms:
     one-electron contribution =  -12631.85978701 Ry
     hartree contribution      =    6328.21708986 Ry
     xc contribution           =    -175.83267252 Ry
     ewald contribution        =    5309.53176630 Ry
     DFT-D3 Dispersion         =      -0.27547657 Ry

     convergence has been achieved in  16 iterations

     Forces acting on atoms (cartesian axes, Ry/au):

     atom    1 type  1   force =     0.00012105   -0.00000000   -0.00016048
     atom    2 type  1   force =    -0.00006053    0.00010483   -0.00016048
     atom    3 type  1   force =    -0.00006053   -0.00010483   -0.00016048
     atom    4 type  1   force =    -0.00012105    0.00000000    0.00016048
     atom    5 type  1   force =     0.00006053   -0.00010483    0.00016048
     atom    6 type  1   force =     0.00006053    0.00010483    0.00016048
     atom    7 type  2   force =     0.00000000    0.00000000    0.00000136
     atom    8 type  2   force =     0.00000512    0.00000000    0.00008131
     atom    9 type  2   force =    -0.00000256    0.00000444    0.00008131
     atom   10 type  2   force =    -0.00000256   -0.00000444    0.00008131
     atom   11 type  2   force =     0.00000000   -0.00000000   -0.00000902
     atom   12 type  2   force =    -0.00003495    0.00000000    0.00002187
     atom   13 type  2   force =     0.00001748   -0.00003027    0.00002187
     atom   14 type  2   force =     0.00001748    0.00003027    0.00002187
     atom   15 type  2   force =     0.00003495   -0.00000000   -0.00002187
     atom   16 type  2   force =    -0.00001748    0.00003027   -0.00002187
     atom   17 type  2   force =    -0.00001748   -0.00003027   -0.00002187
     atom   18 type  2   force =    -0.00000000    0.00000000    0.00000902
     atom   19 type  2   force =    -0.00000512   -0.00000000   -0.00008131
     atom   20 type  2   force =     0.00000256   -0.00000444   -0.00008131
     atom   21 type  2   force =     0.00000256    0.00000444   -0.00008131
     atom   22 type  2   force =    -0.00000000    0.00000000   -0.00000136
     The non-local contrib.  to forces
     atom    1 type  1   force =    -0.23395290   -0.00000000   -0.03792507
     atom    2 type  1   force =     0.11697645   -0.20260916   -0.03792507
     atom    3 type  1   force =     0.11697645    0.20260916   -0.03792507
     atom    4 type  1   force =     0.23395290   -0.00000000    0.03792507
     atom    5 type  1   force =    -0.11697645    0.20260916    0.03792507
     atom    6 type  1   force =    -0.11697645   -0.20260916    0.03792507
     atom    7 type  2   force =    -0.00000000    0.00000000    0.43885239
     atom    8 type  2   force =    -0.17317271   -0.00000000    0.28087812
     atom    9 type  2   force =     0.08658635   -0.14997196    0.28087812
     atom   10 type  2   force =     0.08658635    0.14997196    0.28087812
     atom   11 type  2   force =     0.00000000    0.00000000   -0.35275274
     atom   12 type  2   force =     0.19949984    0.00000000   -0.28498943
     atom   13 type  2   force =    -0.09974992    0.17277193   -0.28498943
     atom   14 type  2   force =    -0.09974992   -0.17277193   -0.28498943
     atom   15 type  2   force =    -0.19949984    0.00000000    0.28498943
     atom   16 type  2   force =     0.09974992   -0.17277193    0.28498943
     atom   17 type  2   force =     0.09974992    0.17277193    0.28498943
     atom   18 type  2   force =    -0.00000000    0.00000000    0.35275274
     atom   19 type  2   force =     0.17317271   -0.00000000   -0.28087812
     atom   20 type  2   force =    -0.08658635    0.14997196   -0.28087812
     atom   21 type  2   force =    -0.08658635   -0.14997196   -0.28087812
     atom   22 type  2   force =     0.00000000    0.00000000   -0.43885239
     The ionic contribution  to forces
     atom    1 type  1   force =     9.36046969    0.00000000  -66.99893831
     atom    2 type  1   force =    -4.68023485    8.10640455  -66.99893830
     atom    3 type  1   force =    -4.68023485   -8.10640455  -66.99893830
     atom    4 type  1   force =    -9.36046969   -0.00000000   66.99893831
     atom    5 type  1   force =     4.68023485   -8.10640455   66.99893830
     atom    6 type  1   force =     4.68023485    8.10640455   66.99893830
     atom    7 type  2   force =    -0.00000000    0.00000000  -71.04244332
     atom    8 type  2   force =     3.53908713   -0.00000000  -59.94467664
     atom    9 type  2   force =    -1.76954356    3.06493936  -59.94467664
     atom   10 type  2   force =    -1.76954356   -3.06493936  -59.94467664
     atom   11 type  2   force =     0.00000000   -0.00000000  -10.41721359
     atom   12 type  2   force =    -6.81243592    0.00000000   -6.77526984
     atom   13 type  2   force =     3.40621796   -5.89974257   -6.77526985
     atom   14 type  2   force =     3.40621796    5.89974257   -6.77526985
     atom   15 type  2   force =     6.81243592    0.00000000    6.77526984
     atom   16 type  2   force =    -3.40621796    5.89974257    6.77526985
     atom   17 type  2   force =    -3.40621796   -5.89974257    6.77526985
     atom   18 type  2   force =    -0.00000000    0.00000000   10.41721359
     atom   19 type  2   force =    -3.53908713    0.00000000   59.94467664
     atom   20 type  2   force =     1.76954356   -3.06493936   59.94467664
     atom   21 type  2   force =     1.76954356    3.06493936   59.94467664
     atom   22 type  2   force =     0.00000000   -0.00000000   71.04244332
     The local contribution  to forces
     atom    1 type  1   force =    -9.12415882   -0.00000000   67.03415374
     atom    2 type  1   force =     4.56207947   -7.90175336   67.03415374
     atom    3 type  1   force =     4.56207947    7.90175336   67.03415374
     atom    4 type  1   force =     9.12415882    0.00000000  -67.03415374
     atom    5 type  1   force =    -4.56207947    7.90175336  -67.03415374
     atom    6 type  1   force =    -4.56207947   -7.90175336  -67.03415374
     atom    7 type  2   force =    -0.00000000    0.00000000   70.60237382
     atom    8 type  2   force =    -3.36645888    0.00000000   59.66239767
     atom    9 type  2   force =     1.68322945   -2.91543892   59.66239767
     atom   10 type  2   force =     1.68322945    2.91543892   59.66239767
     atom   11 type  2   force =     0.00000001   -0.00000000   10.76770683
     atom   12 type  2   force =     6.61384574   -0.00000000    7.05961296
     atom   13 type  2   force =    -3.30692288    5.72775844    7.05961296
     atom   14 type  2   force =    -3.30692288   -5.72775844    7.05961296
     atom   15 type  2   force =    -6.61384574    0.00000000   -7.05961296
     atom   16 type  2   force =     3.30692288   -5.72775844   -7.05961296
     atom   17 type  2   force =     3.30692288    5.72775844   -7.05961296
     atom   18 type  2   force =    -0.00000001    0.00000000  -10.76770683
     atom   19 type  2   force =     3.36645888   -0.00000000  -59.66239767
     atom   20 type  2   force =    -1.68322945    2.91543892  -59.66239767
     atom   21 type  2   force =    -1.68322945   -2.91543892  -59.66239767
     atom   22 type  2   force =     0.00000000   -0.00000000  -70.60237382
     The core correction contribution to forces
     atom    1 type  1   force =     0.00000000    0.00000000    0.00000000
     atom    2 type  1   force =     0.00000000    0.00000000    0.00000000
     atom    3 type  1   force =     0.00000000    0.00000000    0.00000000
     atom    4 type  1   force =     0.00000000    0.00000000    0.00000000
     atom    5 type  1   force =     0.00000000    0.00000000    0.00000000
     atom    6 type  1   force =     0.00000000    0.00000000    0.00000000
     atom    7 type  2   force =     0.00000000    0.00000000    0.00000000
     atom    8 type  2   force =     0.00000000    0.00000000    0.00000000
     atom    9 type  2   force =     0.00000000    0.00000000    0.00000000
     atom   10 type  2   force =     0.00000000    0.00000000    0.00000000
     atom   11 type  2   force =     0.00000000    0.00000000    0.00000000
     atom   12 type  2   force =     0.00000000    0.00000000    0.00000000
     atom   13 type  2   force =     0.00000000    0.00000000    0.00000000
     atom   14 type  2   force =     0.00000000    0.00000000    0.00000000
     atom   15 type  2   force =     0.00000000    0.00000000    0.00000000
     atom   16 type  2   force =     0.00000000    0.00000000    0.00000000
     atom   17 type  2   force =     0.00000000    0.00000000    0.00000000
     atom   18 type  2   force =     0.00000000    0.00000000    0.00000000
     atom   19 type  2   force =     0.00000000    0.00000000    0.00000000
     atom   20 type  2   force =     0.00000000    0.00000000    0.00000000
     atom   21 type  2   force =     0.00000000    0.00000000    0.00000000
     atom   22 type  2   force =     0.00000000    0.00000000    0.00000000
     The Hubbard contrib.    to forces
     atom    1 type  1   force =     0.00000000    0.00000000    0.00000000
     atom    2 type  1   force =     0.00000000    0.00000000    0.00000000
     atom    3 type  1   force =     0.00000000    0.00000000    0.00000000
     atom    4 type  1   force =     0.00000000    0.00000000    0.00000000
     atom    5 type  1   force =     0.00000000    0.00000000    0.00000000
     atom    6 type  1   force =     0.00000000    0.00000000    0.00000000
     atom    7 type  2   force =     0.00000000    0.00000000    0.00000000
     atom    8 type  2   force =     0.00000000    0.00000000    0.00000000
     atom    9 type  2   force =     0.00000000    0.00000000    0.00000000
     atom   10 type  2   force =     0.00000000    0.00000000    0.00000000
     atom   11 type  2   force =     0.00000000    0.00000000    0.00000000
     atom   12 type  2   force =     0.00000000    0.00000000    0.00000000
     atom   13 type  2   force =     0.00000000    0.00000000    0.00000000
     atom   14 type  2   force =     0.00000000    0.00000000    0.00000000
     atom   15 type  2   force =     0.00000000    0.00000000    0.00000000
     atom   16 type  2   force =     0.00000000    0.00000000    0.00000000
     atom   17 type  2   force =     0.00000000    0.00000000    0.00000000
     atom   18 type  2   force =     0.00000000    0.00000000    0.00000000
     atom   19 type  2   force =     0.00000000    0.00000000    0.00000000
     atom   20 type  2   force =     0.00000000    0.00000000    0.00000000
     atom   21 type  2   force =     0.00000000    0.00000000    0.00000000
     atom   22 type  2   force =     0.00000000    0.00000000    0.00000000
     The SCF correction term to forces
     atom    1 type  1   force =    -0.00000019   -0.00000000    0.00000005
     atom    2 type  1   force =     0.00000010   -0.00000017    0.00000005
     atom    3 type  1   force =     0.00000010    0.00000017    0.00000005
     atom    4 type  1   force =     0.00000019    0.00000000   -0.00000005
     atom    5 type  1   force =    -0.00000010    0.00000017   -0.00000005
     atom    6 type  1   force =    -0.00000010   -0.00000017   -0.00000005
     atom    7 type  2   force =     0.00000000    0.00000000    0.00000107
     atom    8 type  2   force =    -0.00000053    0.00000000    0.00000087
     atom    9 type  2   force =     0.00000026   -0.00000046    0.00000087
     atom   10 type  2   force =     0.00000026    0.00000046    0.00000087
     atom   11 type  2   force =     0.00000000    0.00000000   -0.00000052
     atom   12 type  2   force =     0.00000004   -0.00000000   -0.00000048
     atom   13 type  2   force =    -0.00000002    0.00000003   -0.00000048
     atom   14 type  2   force =    -0.00000002   -0.00000003   -0.00000048
     atom   15 type  2   force =    -0.00000004    0.00000000    0.00000048
     atom   16 type  2   force =     0.00000002   -0.00000003    0.00000048
     atom   17 type  2   force =     0.00000002    0.00000003    0.00000048
     atom   18 type  2   force =    -0.00000000    0.00000000    0.00000052
     atom   19 type  2   force =     0.00000053    0.00000000   -0.00000087
     atom   20 type  2   force =    -0.00000026    0.00000046   -0.00000087
     atom   21 type  2   force =    -0.00000026   -0.00000046   -0.00000087
     atom   22 type  2   force =     0.00000000    0.00000000   -0.00000107

     DFT-D3 dispersion contribution to forces:
     atom    1 type  1   force =    -0.00223669   -0.00000000    0.00254911
     atom    2 type  1   force =     0.00111834   -0.00193703    0.00254911
     atom    3 type  1   force =     0.00111834    0.00193703    0.00254911
     atom    4 type  1   force =     0.00223669    0.00000000   -0.00254911
     atom    5 type  1   force =    -0.00111834    0.00193703   -0.00254911
     atom    6 type  1   force =    -0.00111834   -0.00193703   -0.00254911
     atom    7 type  2   force =    -0.00000000    0.00000000    0.00121740
     atom    8 type  2   force =     0.00055011   -0.00000000    0.00148129
     atom    9 type  2   force =    -0.00027506    0.00047641    0.00148129
     atom   10 type  2   force =    -0.00027506   -0.00047641    0.00148129
     atom   11 type  2   force =     0.00000000   -0.00000000    0.00225100
     atom   12 type  2   force =    -0.00094466    0.00000000    0.00066867
     atom   13 type  2   force =     0.00047233   -0.00081810    0.00066867
     atom   14 type  2   force =     0.00047233    0.00081810    0.00066867
     atom   15 type  2   force =     0.00094466   -0.00000000   -0.00066867
     atom   16 type  2   force =    -0.00047233    0.00081810   -0.00066867
     atom   17 type  2   force =    -0.00047233   -0.00081810   -0.00066867
     atom   18 type  2   force =    -0.00000000    0.00000000   -0.00225100
     atom   19 type  2   force =    -0.00055011    0.00000000   -0.00148129
     atom   20 type  2   force =     0.00027506   -0.00047641   -0.00148129
     atom   21 type  2   force =     0.00027506    0.00047641   -0.00148129
     atom   22 type  2   force =     0.00000000   -0.00000000   -0.00121740

     Total force =     0.000541     Total SCF correction =     0.000003

     DFT-D3 dispersion Force =     0.010253


     Computing stress (Cartesian axis) and pressure

          total   stress  (Ry/bohr**3)                   (kbar)     P=        1.22
   0.00001282  -0.00000000   0.00000000            1.89       -0.00        0.00
  -0.00000000   0.00001282  -0.00000000           -0.00        1.89       -0.00
  -0.00000000   0.00000000  -0.00000068           -0.00        0.00       -0.10

     kinetic stress (kbar)   4688.76     -0.00     -0.00
                               -0.00   4688.76     -0.00
                                0.00      0.00   4646.95

     local   stress (kbar)-226228.87     -0.00      0.00
                               -0.00-226228.87     -0.00
                                0.00     -0.00 218310.88

     nonloc. stress (kbar)   4263.40      0.00     -0.00
                               -0.00   4263.40      0.00
                               -0.00      0.00   4276.93

     hartree stress (kbar) 111434.97      0.00     -0.00
                                0.00 111434.97      0.00
                               -0.00      0.00-108507.77

     exc-cor stress (kbar)   -992.43      0.00     -0.00
                                0.00   -992.43      0.00
                               -0.00      0.00   -994.21

     corecor stress (kbar)      0.00      0.00      0.00
                                0.00      0.00      0.00
                                0.00      0.00      0.00

     ewald   stress (kbar) 106840.85     -0.00     -0.00
                               -0.00 106840.85      0.00
                               -0.00      0.00-117728.98

     hubbard stress (kbar)      0.00      0.00      0.00
                                0.00      0.00      0.00
                                0.00      0.00      0.00

     DFT-D   stress (kbar)     -4.79      0.00      0.00
                                0.00     -4.79     -0.00
                                0.00     -0.00     -3.89

     XDM     stress (kbar)      0.00      0.00      0.00
                                0.00      0.00      0.00
                                0.00      0.00      0.00

     dft-nl  stress (kbar)      0.00      0.00      0.00
                                0.00      0.00      0.00
                                0.00      0.00      0.00

     TS-vdW  stress (kbar)      0.00      0.00      0.00
                                0.00      0.00      0.00
                                0.00      0.00      0.00

     MDB     stress (kbar)      0.00      0.00      0.00
                                0.00      0.00      0.00
                                0.00      0.00      0.00

     3D-RISM stress (kbar)      0.00      0.00      0.00
                                0.00      0.00      0.00
                                0.00      0.00      0.00


     Writing all to output data dir ./out/Nb3Cl8.save/ :
     XML data file, charge density, pseudopotentials, collected wavefunctions

     init_run     :      0.95s CPU      1.05s WALL (       1 calls)
     electrons    :     31.76s CPU     36.39s WALL (       1 calls)
     forces       :      0.35s CPU      0.39s WALL (       1 calls)
     force_dftd3  :      0.04s CPU      0.04s WALL (       1 calls)
     stress       :      2.97s CPU      3.05s WALL (       1 calls)
     stres_dftd3  :      0.01s CPU      0.01s WALL (       1 calls)

     Called by init_run:
     wfcinit      :      0.36s CPU      0.39s WALL (       1 calls)
     wfcinit:wfcr :      0.32s CPU      0.34s WALL (       1 calls)
     potinit      :      0.06s CPU      0.07s WALL (       1 calls)
     hinit0       :      0.13s CPU      0.17s WALL (       1 calls)

     Called by electrons:
     c_bands      :     27.82s CPU     28.43s WALL (      17 calls)
     sum_band     :      2.34s CPU      2.43s WALL (      17 calls)
     v_of_rho     :      0.75s CPU      0.87s WALL (      17 calls)
     v_h          :      0.07s CPU      0.08s WALL (      17 calls)
     v_xc         :      0.68s CPU      0.79s WALL (      17 calls)
     mix_rho      :      0.30s CPU      0.32s WALL (      17 calls)
     energy_dftd3 :      0.00s CPU      0.00s WALL (       1 calls)

     Called by c_bands:
     init_us_2    :      0.64s CPU      0.66s WALL (      35 calls)
     cegterg      :     24.05s CPU     24.59s WALL (      17 calls)

     Called by sum_band:
     sum_band:wei :      0.04s CPU      0.04s WALL (      17 calls)
     sum_band:loo :      2.14s CPU      2.17s WALL (      17 calls)
     sum_band:buf :      0.00s CPU      0.00s WALL (      17 calls)
     sum_band:ini :      0.33s CPU      0.34s WALL (      17 calls)

     Called by *egterg:
     cdiaghg      :      2.42s CPU      2.48s WALL (     140 calls)
     cegterg:over :      2.43s CPU      2.45s WALL (     124 calls)
     cegterg:upda :      1.78s CPU      1.88s WALL (     124 calls)
     cegterg:last :      2.13s CPU      2.15s WALL (      41 calls)
     h_psi        :     14.59s CPU     14.90s WALL (     142 calls)
     g_psi        :      0.07s CPU      0.07s WALL (     124 calls)

     Called by h_psi:
     h_psi:calbec :      2.04s CPU      2.06s WALL (     142 calls)
     vloc_psi     :     10.41s CPU     10.57s WALL (     142 calls)
     add_vuspsi   :      1.89s CPU      1.91s WALL (     142 calls)

     General routines
     calbec       :      2.19s CPU      2.21s WALL (     147 calls)
     fft          :      0.37s CPU      0.49s WALL (     178 calls)
     ffts         :      0.03s CPU      0.04s WALL (      17 calls)
     fftw         :     11.23s CPU     11.39s WALL (   14364 calls)

     Parallel routines

     PWSCF        :     37.40s CPU    108.16s WALL


   This run was terminated on:  21: 4:40   7May2025            

=------------------------------------------------------------------------------=
   JOB DONE.
=------------------------------------------------------------------------------=
