
     Program PHONON v.7.3.1 starts on  8May2025 at  9:33: 2 

     This program is part of the open-source Quantum ESPRESSO suite
     for quantum simulation of materials; please cite
         "P. Giannozzi et al., J. Phys.:Condens. Matter 21 395502 (2009);
         "P. Giannozzi et al., J. Phys.:Condens. Matter 29 465901 (2017);
         "P. Giannozzi et al., J. Chem. Phys. 152 154105 (2020);
          URL http://www.quantum-espresso.org", 
     in publications or presentations arising from this work. More details at
     http://www.quantum-espresso.org/quote

     Parallel version (MPI & OpenMP), running on     384 processor cores
     Number of MPI processes:               384
     Threads/MPI process:                     1

     MPI processes distributed on     2 nodes
     337398 MiB available memory on the printing compute node when the environment starts

     Waiting for input...
     Reading input from standard input
     Run is not recoverable starting from scratch

     Reading xml data from directory:

     ./out/Nb3Cl8.save/

     K-points division:     npool     =      12
     R & G space division:  proc/nbgrp/npool/nimage =      32
     Subspace diagonalization in iterative solution of the eigenvalue problem:
     a serial algorithm will be used


     IMPORTANT: XC functional enforced from input :
     Exchange-correlation= PBE
                           (   1   4   3   4   0   0   0)
     Any further DFT definition will be discarded
     Please, verify this is what you really want


     Parallelization info
     --------------------
     sticks:   dense  smooth     PW     G-vecs:    dense   smooth      PW
     Min         140     140     37                34374    34374    4725
     Max         141     141     38                34388    34388    4743
     Sum        4483    4483   1189              1100103  1100103  151427

     Using Slab Decomposition

     Message from routine divide_et_impera:
     suboptimal parallelization: some nodes have no k-points
     Reading collected, re-writing distributed wavefunctions in ./out/


     Dynamical matrices for ( 2, 2, 1)  uniform grid of q-points
     (   2 q-points):
       N         xq(1)         xq(2)         xq(3) 
       1   0.000000000   0.000000000   0.000000000
       2   0.288675135  -0.500000000   0.000000000

     Number and degeneracy of irreps per q-point
       N         xq(1)         xq(2)         xq(3)   N irreps
       1   0.000000000   0.000000000   0.000000000      22
        1   1   1   1   1   1   1   1   1   1   1   2   2   2   2   2   2   2
   2   2   2   2
       2   0.288675135  -0.500000000   0.000000000      33
     No degeneracy

     Saving dvscf to file. Distribute only q points, not irreducible representations.

     Calculation of q =    0.0000000   0.0000000   0.0000000

     Nb3Cl8                                                                     

     bravais-lattice index     =            0
     lattice parameter (alat)  =      12.7288  a.u.
     unit-cell volume          =    8140.0419 (a.u.)^3
     number of atoms/cell      =           11
     number of atomic types    =            2
     kinetic-energy cut-off    =     100.0000  Ry
     charge density cut-off    =     400.0000  Ry
     convergence threshold     =      1.0E-16
     beta                      =       0.7000
     number of iterations used =            4
     Exchange-correlation= PBE
                           (   1   4   3   4   0   0   0)


     celldm(1)=   12.72878  celldm(2)=    0.00000  celldm(3)=    0.00000
     celldm(4)=    0.00000  celldm(5)=    0.00000  celldm(6)=    0.00000

     crystal axes: (cart. coord. in units of alat)
               a(1) = (  0.8660  0.5000  0.0000 )  
               a(2) = ( -0.8660  0.5000  0.0000 )  
               a(3) = (  0.0000  0.0000  4.5576 )  

     reciprocal axes: (cart. coord. in units 2 pi/alat)
               b(1) = (  0.5774  1.0000 -0.0000 )  
               b(2) = ( -0.5774  1.0000  0.0000 )  
               b(3) = (  0.0000 -0.0000  0.2194 )  


     Atoms inside the unit cell: 

     Cartesian axes

     site n.  atom      mass           positions (alat units)
        1  Nb     92.9064   tau(    1) = (   -0.24024    0.00000    0.46409  )
        2  Nb     92.9064   tau(    2) = (    0.12012   -0.20806    0.46409  )
        3  Nb     92.9064   tau(    3) = (    0.12012    0.20806    0.46409  )
        4  Cl     35.4527   tau(    4) = (    0.28504   -0.00000    0.21766  )
        5  Cl     35.4527   tau(    5) = (   -0.14252    0.24686    0.21766  )
        6  Cl     35.4527   tau(    6) = (   -0.14252   -0.24686    0.21766  )
        7  Cl     35.4527   tau(    7) = (   -0.57735   -0.00000    0.26094  )
        8  Cl     35.4527   tau(    8) = (    0.86305   -0.00000    0.66550  )
        9  Cl     35.4527   tau(    9) = (    0.43450    0.24743    0.66550  )
       10  Cl     35.4527   tau(   10) = (    0.43450   -0.24743    0.66550  )
       11  Cl     35.4527   tau(   11) = (    0.00000    0.00000    0.73837  )

     Computing dynamical matrix for 
                    q = (   0.0000000   0.0000000   0.0000000 )

      7 Sym.Ops. (with q -> -q+G )


     G cutoff = 1641.6235  (  34378 G-vectors)     FFT grid: ( 81, 81,375)

     number of k points=     7  Gaussian smearing, width (Ry)=  0.0037

     PseudoPot. # 1 for Nb read from file:
     /scratch-shared/mroesner/Nb3X8_cDFPT/pp/Nb_ONCV_PBE-1.2.upf
     MD5 check sum: 2c750ac0b6910ff4cf0ab5f6c4124a64
     Pseudo is Norm-conserving, Zval = 13.0
     Generated using ONCVPSP code by D. R. Hamann
     Using radial grid of  602 points,  6 beta functions with: 
                l(1) =   0
                l(2) =   0
                l(3) =   1
                l(4) =   1
                l(5) =   2
                l(6) =   2

     PseudoPot. # 2 for Cl read from file:
     /scratch-shared/mroesner/Nb3X8_cDFPT/pp/Cl_ONCV_PBE-1.2.upf
     MD5 check sum: 0f993535b366f580ecbcdacce103c843
     Pseudo is Norm-conserving, Zval =  7.0
     Generated using ONCVPSP code by D. R. Hamann
     Using radial grid of  602 points,  4 beta functions with: 
                l(1) =   0
                l(2) =   0
                l(3) =   1
                l(4) =   1

     Mode symmetry, C_3v (3m)   point group:


     Atomic displacements:
     There are   22 irreducible representations

     Representation     1      1 modes -  To be done

     Representation     2      1 modes -  To be done

     Representation     3      1 modes -  To be done

     Representation     4      1 modes -  To be done

     Representation     5      1 modes -  To be done

     Representation     6      1 modes -  To be done

     Representation     7      1 modes -  To be done

     Representation     8      1 modes -  To be done

     Representation     9      1 modes -  To be done

     Representation    10      1 modes -  To be done

     Representation    11      1 modes -  To be done

     Representation    12      2 modes -  To be done

     Representation    13      2 modes -  To be done

     Representation    14      2 modes -  To be done

     Representation    15      2 modes -  To be done

     Representation    16      2 modes -  To be done

     Representation    17      2 modes -  To be done

     Representation    18      2 modes -  To be done

     Representation    19      2 modes -  To be done

     Representation    20      2 modes -  To be done

     Representation    21      2 modes -  To be done

     Representation    22      2 modes -  To be done



     Alpha used in Ewald sum =   2.8000

     Reading Grimme-D3 Hessian from file: ./out/Nb3Cl8.hess

     Number of cells replicated along each semiaxis:    9   9   2
     Number of cells in the supercell:      1805
     Number of atoms in the supercell:     19855
     Hessian allocation dimension:   1965645

     Grimme-D3 Hessian read 

     Computing dynamical matrix for q:     0.000000    0.000000    0.000000

     Writing Hessian on file dynamical.false.dat

     Dynamical matrix computed
     PHONON       :      9.61s CPU    156.74s WALL



     Representation #   1 mode #   1

     Self-consistent Calculation

     Pert. #  1: Fermi energy shift (Ry) =     1.2919E-01     1.0588E-22

      iter #   1 total cpu time :   233.2 secs   av.it.:   6.9
      thresh= 1.000E-02 alpha_mix =  0.700 |ddv_scf|^2 =  3.989E-08

     Pert. #  1: Fermi energy shift (Ry) =    -3.6973E-01     2.4815E-24

      iter #   2 total cpu time :   327.7 secs   av.it.:  18.4
      thresh= 1.997E-05 alpha_mix =  0.700 |ddv_scf|^2 =  9.221E-08

     Pert. #  1: Fermi energy shift (Ry) =     1.1992E-01     3.1019E-25

      iter #   3 total cpu time :   359.1 secs   av.it.:  16.4
      thresh= 3.037E-05 alpha_mix =  0.700 |ddv_scf|^2 =  1.042E-08

     Pert. #  1: Fermi energy shift (Ry) =     1.7079E-02     2.0680E-25

      iter #   4 total cpu time :   396.1 secs   av.it.:  16.1
      thresh= 1.021E-05 alpha_mix =  0.700 |ddv_scf|^2 =  2.919E-10

     Pert. #  1: Fermi energy shift (Ry) =    -1.3816E-02     2.0680E-25

      iter #   5 total cpu time :   419.0 secs   av.it.:  16.7
      thresh= 1.708E-06 alpha_mix =  0.700 |ddv_scf|^2 =  4.574E-11

     Pert. #  1: Fermi energy shift (Ry) =    -7.5809E-03     7.7548E-26

      iter #   6 total cpu time :   443.3 secs   av.it.:  16.1
      thresh= 6.764E-07 alpha_mix =  0.700 |ddv_scf|^2 =  1.017E-11

     Pert. #  1: Fermi energy shift (Ry) =    -8.4722E-03     3.2312E-27

      iter #   7 total cpu time :   466.7 secs   av.it.:  16.3
      thresh= 3.189E-07 alpha_mix =  0.700 |ddv_scf|^2 =  3.962E-12

     Pert. #  1: Fermi energy shift (Ry) =    -3.5034E-03    -2.5849E-26

      iter #   8 total cpu time :   495.6 secs   av.it.:  18.0
      thresh= 1.990E-07 alpha_mix =  0.700 |ddv_scf|^2 =  1.604E-12

     Pert. #  1: Fermi energy shift (Ry) =    -5.3241E-03     9.6935E-27

      iter #   9 total cpu time :   520.1 secs   av.it.:  17.1
      thresh= 1.266E-07 alpha_mix =  0.700 |ddv_scf|^2 =  1.235E-14

     Pert. #  1: Fermi energy shift (Ry) =    -5.7268E-03    -1.6156E-27

      iter #  10 total cpu time :   543.1 secs   av.it.:  18.6
      thresh= 1.111E-08 alpha_mix =  0.700 |ddv_scf|^2 =  1.870E-14

     Pert. #  1: Fermi energy shift (Ry) =    -5.4175E-03    -6.0585E-28

      iter #  11 total cpu time :   572.4 secs   av.it.:  17.0
      thresh= 1.368E-08 alpha_mix =  0.700 |ddv_scf|^2 =  2.715E-15

     Pert. #  1: Fermi energy shift (Ry) =    -5.4837E-03    -6.0585E-28

      iter #  12 total cpu time :   606.0 secs   av.it.:  16.1
      thresh= 5.211E-09 alpha_mix =  0.700 |ddv_scf|^2 =  3.371E-16

     Pert. #  1: Fermi energy shift (Ry) =    -5.4594E-03    -1.5146E-28

      iter #  13 total cpu time :   664.1 secs   av.it.:  17.3
      thresh= 1.836E-09 alpha_mix =  0.700 |ddv_scf|^2 =  1.845E-18

     End of self-consistent calculation

     Convergence has been achieved 


     Representation #   2 mode #   2

     Self-consistent Calculation

     Pert. #  1: Fermi energy shift (Ry) =     6.6217E-01     1.2705E-21

      iter #   1 total cpu time :   717.2 secs   av.it.:   7.0
      thresh= 1.000E-02 alpha_mix =  0.700 |ddv_scf|^2 =  7.099E-07

     Pert. #  1: Fermi energy shift (Ry) =    -1.3456E+00     6.4623E-26

      iter #   2 total cpu time :   756.5 secs   av.it.:  16.9
      thresh= 8.426E-05 alpha_mix =  0.700 |ddv_scf|^2 =  4.468E-06

     Pert. #  1: Fermi energy shift (Ry) =    -2.2500E-01     3.3087E-23

      iter #   3 total cpu time :   791.6 secs   av.it.:  14.9
      thresh= 2.114E-04 alpha_mix =  0.700 |ddv_scf|^2 =  3.455E-08

     Pert. #  1: Fermi energy shift (Ry) =     2.4154E-02    -5.1699E-25

      iter #   4 total cpu time :   826.8 secs   av.it.:  15.7
      thresh= 1.859E-05 alpha_mix =  0.700 |ddv_scf|^2 =  1.655E-09

     Pert. #  1: Fermi energy shift (Ry) =    -7.5136E-02    -3.2312E-26

      iter #   5 total cpu time :   887.2 secs   av.it.:  17.3
      thresh= 4.069E-06 alpha_mix =  0.700 |ddv_scf|^2 =  3.382E-10

     Pert. #  1: Fermi energy shift (Ry) =    -3.8849E-02    -2.5849E-25

      iter #   6 total cpu time :   907.2 secs   av.it.:  16.9
      thresh= 1.839E-06 alpha_mix =  0.700 |ddv_scf|^2 =  1.932E-11

     Pert. #  1: Fermi energy shift (Ry) =    -4.1154E-02     3.2312E-26

      iter #   7 total cpu time :   924.3 secs   av.it.:  17.9
      thresh= 4.395E-07 alpha_mix =  0.700 |ddv_scf|^2 =  1.917E-11

     Pert. #  1: Fermi energy shift (Ry) =    -4.0756E-02     6.4623E-26

      iter #   8 total cpu time :   943.5 secs   av.it.:  16.3
      thresh= 4.379E-07 alpha_mix =  0.700 |ddv_scf|^2 =  1.479E-13

     Pert. #  1: Fermi energy shift (Ry) =    -4.0414E-02     6.4623E-27

      iter #   9 total cpu time :   964.4 secs   av.it.:  18.6
      thresh= 3.846E-08 alpha_mix =  0.700 |ddv_scf|^2 =  2.955E-13

     Pert. #  1: Fermi energy shift (Ry) =    -4.0778E-02    -8.0779E-27

      iter #  10 total cpu time :   984.6 secs   av.it.:  16.9
      thresh= 5.436E-08 alpha_mix =  0.700 |ddv_scf|^2 =  7.973E-15

     Pert. #  1: Fermi energy shift (Ry) =    -4.0591E-02    -2.4234E-27

      iter #  11 total cpu time :  1007.1 secs   av.it.:  16.7
      thresh= 8.929E-09 alpha_mix =  0.700 |ddv_scf|^2 =  8.115E-16

     Pert. #  1: Fermi energy shift (Ry) =    -4.0648E-02    -8.0779E-28

      iter #  12 total cpu time :  1024.5 secs   av.it.:  17.1
      thresh= 2.849E-09 alpha_mix =  0.700 |ddv_scf|^2 =  5.221E-17

     End of self-consistent calculation

     Convergence has been achieved 


     Representation #   3 mode #   3

     Self-consistent Calculation

     Pert. #  1: Fermi energy shift (Ry) =    -6.4139E-01    -3.1764E-22

      iter #   1 total cpu time :  1071.4 secs   av.it.:   7.0
      thresh= 1.000E-02 alpha_mix =  0.700 |ddv_scf|^2 =  7.250E-07

     Pert. #  1: Fermi energy shift (Ry) =     1.2111E+00     6.6174E-24

      iter #   2 total cpu time :  1104.0 secs   av.it.:  16.9
      thresh= 8.515E-05 alpha_mix =  0.700 |ddv_scf|^2 =  4.530E-06

     Pert. #  1: Fermi energy shift (Ry) =     2.0770E-01     2.6470E-23

      iter #   3 total cpu time :  1146.8 secs   av.it.:  14.7
      thresh= 2.128E-04 alpha_mix =  0.700 |ddv_scf|^2 =  2.696E-08

     Pert. #  1: Fermi energy shift (Ry) =    -4.6055E-02     1.2408E-24

      iter #   4 total cpu time :  1172.6 secs   av.it.:  16.0
      thresh= 1.642E-05 alpha_mix =  0.700 |ddv_scf|^2 =  8.859E-10

     Pert. #  1: Fermi energy shift (Ry) =     4.8577E-02     2.0680E-25

      iter #   5 total cpu time :  1245.2 secs   av.it.:  18.0
      thresh= 2.976E-06 alpha_mix =  0.700 |ddv_scf|^2 =  2.762E-10

     Pert. #  1: Fermi energy shift (Ry) =     1.6261E-02    -4.1359E-25

      iter #   6 total cpu time :  1266.6 secs   av.it.:  17.0
      thresh= 1.662E-06 alpha_mix =  0.700 |ddv_scf|^2 =  2.674E-11

     Pert. #  1: Fermi energy shift (Ry) =     1.4738E-02    -1.2925E-26

      iter #   7 total cpu time :  1291.4 secs   av.it.:  16.3
      thresh= 5.171E-07 alpha_mix =  0.700 |ddv_scf|^2 =  2.984E-13

     Pert. #  1: Fermi energy shift (Ry) =     1.3834E-02     2.4234E-27

      iter #   8 total cpu time :  1312.6 secs   av.it.:  18.4
      thresh= 5.463E-08 alpha_mix =  0.700 |ddv_scf|^2 =  2.608E-13

     Pert. #  1: Fermi energy shift (Ry) =     1.3809E-02     6.4623E-27

      iter #   9 total cpu time :  1346.4 secs   av.it.:  17.3
      thresh= 5.107E-08 alpha_mix =  0.700 |ddv_scf|^2 =  1.222E-13

     Pert. #  1: Fermi energy shift (Ry) =     1.3659E-02     2.4234E-27

      iter #  10 total cpu time :  1369.4 secs   av.it.:  16.0
      thresh= 3.495E-08 alpha_mix =  0.700 |ddv_scf|^2 =  8.768E-15

     Pert. #  1: Fermi energy shift (Ry) =     1.3436E-02     1.2117E-27

      iter #  11 total cpu time :  1394.3 secs   av.it.:  16.6
      thresh= 9.364E-09 alpha_mix =  0.700 |ddv_scf|^2 =  9.665E-16

     Pert. #  1: Fermi energy shift (Ry) =     1.3543E-02     6.0585E-28

      iter #  12 total cpu time :  1418.4 secs   av.it.:  17.4
      thresh= 3.109E-09 alpha_mix =  0.700 |ddv_scf|^2 =  1.882E-16

     Pert. #  1: Fermi energy shift (Ry) =     1.3508E-02     2.0195E-28

      iter #  13 total cpu time :  1434.8 secs   av.it.:  17.0
      thresh= 1.372E-09 alpha_mix =  0.700 |ddv_scf|^2 =  6.291E-18

     End of self-consistent calculation

     Convergence has been achieved 


     Representation #   4 mode #   4

     Self-consistent Calculation

     Pert. #  1: Fermi energy shift (Ry) =    -3.4173E-02    -2.9646E-21

      iter #   1 total cpu time :  1508.0 secs   av.it.:   8.4
      thresh= 1.000E-02 alpha_mix =  0.700 |ddv_scf|^2 =  3.500E-06

     Pert. #  1: Fermi energy shift (Ry) =     3.1963E-01     2.6470E-23

      iter #   2 total cpu time :  1536.9 secs   av.it.:  16.7
      thresh= 1.871E-04 alpha_mix =  0.700 |ddv_scf|^2 =  2.935E-05

     Pert. #  1: Fermi energy shift (Ry) =     8.7541E-02     1.6544E-23

      iter #   3 total cpu time :  1566.4 secs   av.it.:  14.3
      thresh= 5.417E-04 alpha_mix =  0.700 |ddv_scf|^2 =  1.447E-08

     Pert. #  1: Fermi energy shift (Ry) =    -6.4625E-02    -3.3087E-24

      iter #   4 total cpu time :  1598.1 secs   av.it.:  17.3
      thresh= 1.203E-05 alpha_mix =  0.700 |ddv_scf|^2 =  1.814E-09

     Pert. #  1: Fermi energy shift (Ry) =     6.2509E-02    -1.8095E-25

      iter #   5 total cpu time :  1625.6 secs   av.it.:  17.0
      thresh= 4.259E-06 alpha_mix =  0.700 |ddv_scf|^2 =  2.721E-10

     Pert. #  1: Fermi energy shift (Ry) =     2.2802E-02    -3.1019E-25

      iter #   6 total cpu time :  1647.0 secs   av.it.:  17.1
      thresh= 1.650E-06 alpha_mix =  0.700 |ddv_scf|^2 =  2.708E-11

     Pert. #  1: Fermi energy shift (Ry) =     2.7083E-02     2.8434E-25

      iter #   7 total cpu time :  1679.4 secs   av.it.:  17.3
      thresh= 5.204E-07 alpha_mix =  0.700 |ddv_scf|^2 =  3.226E-12

     Pert. #  1: Fermi energy shift (Ry) =     2.8263E-02     6.4623E-26

      iter #   8 total cpu time :  1713.1 secs   av.it.:  17.4
      thresh= 1.796E-07 alpha_mix =  0.700 |ddv_scf|^2 =  5.147E-13

     Pert. #  1: Fermi energy shift (Ry) =     2.7933E-02    -1.8175E-27

      iter #   9 total cpu time :  1735.9 secs   av.it.:  16.9
      thresh= 7.174E-08 alpha_mix =  0.700 |ddv_scf|^2 =  1.831E-13

     Pert. #  1: Fermi energy shift (Ry) =     2.8241E-02     1.2925E-26

      iter #  10 total cpu time :  1764.0 secs   av.it.:  17.1
      thresh= 4.279E-08 alpha_mix =  0.700 |ddv_scf|^2 =  9.202E-14

     Pert. #  1: Fermi energy shift (Ry) =     2.7638E-02     1.1309E-26

      iter #  11 total cpu time :  1789.8 secs   av.it.:  17.0
      thresh= 3.033E-08 alpha_mix =  0.700 |ddv_scf|^2 =  3.124E-14

     Pert. #  1: Fermi energy shift (Ry) =     2.8042E-02     5.6546E-27

      iter #  12 total cpu time :  1813.1 secs   av.it.:  16.6
      thresh= 1.767E-08 alpha_mix =  0.700 |ddv_scf|^2 =  4.030E-16

     Pert. #  1: Fermi energy shift (Ry) =     2.8047E-02    -9.0877E-28

      iter #  13 total cpu time :  1835.3 secs   av.it.:  17.9
      thresh= 2.007E-09 alpha_mix =  0.700 |ddv_scf|^2 =  2.241E-16

     Pert. #  1: Fermi energy shift (Ry) =     2.8037E-02    -1.4136E-27

      iter #  14 total cpu time :  1853.0 secs   av.it.:  16.3
      thresh= 1.497E-09 alpha_mix =  0.700 |ddv_scf|^2 =  1.267E-17

     End of self-consistent calculation

     Convergence has been achieved 


     Representation #   5 mode #   5

     Self-consistent Calculation

     Pert. #  1: Fermi energy shift (Ry) =    -5.3365E-01     0.0000E+00

      iter #   1 total cpu time :  1915.4 secs   av.it.:   6.4
      thresh= 1.000E-02 alpha_mix =  0.700 |ddv_scf|^2 =  1.897E-07

     Pert. #  1: Fermi energy shift (Ry) =     1.0392E+00     0.0000E+00

      iter #   2 total cpu time :  1955.0 secs   av.it.:  17.4
      thresh= 4.356E-05 alpha_mix =  0.700 |ddv_scf|^2 =  8.749E-07

     Pert. #  1: Fermi energy shift (Ry) =     4.3833E-02     0.0000E+00

      iter #   3 total cpu time :  1998.5 secs   av.it.:  15.3
      thresh= 9.354E-05 alpha_mix =  0.700 |ddv_scf|^2 =  1.530E-08

     Pert. #  1: Fermi energy shift (Ry) =    -6.2403E-02     0.0000E+00

      iter #   4 total cpu time :  2043.4 secs   av.it.:  15.7
      thresh= 1.237E-05 alpha_mix =  0.700 |ddv_scf|^2 =  1.123E-09

     Pert. #  1: Fermi energy shift (Ry) =     1.8845E-02     0.0000E+00

      iter #   5 total cpu time :  2088.2 secs   av.it.:  17.0
      thresh= 3.351E-06 alpha_mix =  0.700 |ddv_scf|^2 =  7.280E-11

     Pert. #  1: Fermi energy shift (Ry) =     1.2233E-02     0.0000E+00

      iter #   6 total cpu time :  2115.8 secs   av.it.:  16.3
      thresh= 8.532E-07 alpha_mix =  0.700 |ddv_scf|^2 =  2.342E-11

     Pert. #  1: Fermi energy shift (Ry) =     7.1393E-03     0.0000E+00

      iter #   7 total cpu time :  2148.7 secs   av.it.:  16.7
      thresh= 4.840E-07 alpha_mix =  0.700 |ddv_scf|^2 =  8.767E-12

     Pert. #  1: Fermi energy shift (Ry) =     9.7096E-03     0.0000E+00

      iter #   8 total cpu time :  2176.1 secs   av.it.:  17.3
      thresh= 2.961E-07 alpha_mix =  0.700 |ddv_scf|^2 =  1.220E-13

     Pert. #  1: Fermi energy shift (Ry) =     9.6403E-03     0.0000E+00

      iter #   9 total cpu time :  2204.8 secs   av.it.:  18.4
      thresh= 3.493E-08 alpha_mix =  0.700 |ddv_scf|^2 =  9.925E-14

     Pert. #  1: Fermi energy shift (Ry) =     1.0020E-02     0.0000E+00

      iter #  10 total cpu time :  2227.9 secs   av.it.:  17.4
      thresh= 3.150E-08 alpha_mix =  0.700 |ddv_scf|^2 =  3.039E-14

     Pert. #  1: Fermi energy shift (Ry) =     9.5899E-03     0.0000E+00

      iter #  11 total cpu time :  2257.0 secs   av.it.:  16.7
      thresh= 1.743E-08 alpha_mix =  0.700 |ddv_scf|^2 =  5.796E-15

     Pert. #  1: Fermi energy shift (Ry) =     9.6914E-03     0.0000E+00

      iter #  12 total cpu time :  2279.6 secs   av.it.:  16.4
      thresh= 7.613E-09 alpha_mix =  0.700 |ddv_scf|^2 =  8.182E-17

     End of self-consistent calculation

     Convergence has been achieved 


     Representation #   6 mode #   6

     Self-consistent Calculation

     Pert. #  1: Fermi energy shift (Ry) =     3.1320E-01     0.0000E+00

      iter #   1 total cpu time :  2388.2 secs   av.it.:   6.6
      thresh= 1.000E-02 alpha_mix =  0.700 |ddv_scf|^2 =  2.580E-07

     Pert. #  1: Fermi energy shift (Ry) =    -6.2612E-01     0.0000E+00

      iter #   2 total cpu time :  2412.8 secs   av.it.:  17.0
      thresh= 5.080E-05 alpha_mix =  0.700 |ddv_scf|^2 =  1.660E-06

     Pert. #  1: Fermi energy shift (Ry) =    -9.2425E-02     0.0000E+00

      iter #   3 total cpu time :  2461.3 secs   av.it.:  14.7
      thresh= 1.289E-04 alpha_mix =  0.700 |ddv_scf|^2 =  1.081E-08

     Pert. #  1: Fermi energy shift (Ry) =     3.4923E-02     0.0000E+00

      iter #   4 total cpu time :  2505.1 secs   av.it.:  16.0
      thresh= 1.040E-05 alpha_mix =  0.700 |ddv_scf|^2 =  5.273E-10

     Pert. #  1: Fermi energy shift (Ry) =    -2.3250E-02     0.0000E+00

      iter #   5 total cpu time :  2527.3 secs   av.it.:  17.3
      thresh= 2.296E-06 alpha_mix =  0.700 |ddv_scf|^2 =  1.529E-10

     Pert. #  1: Fermi energy shift (Ry) =     1.8765E-03     0.0000E+00

      iter #   6 total cpu time :  2550.4 secs   av.it.:  17.1
      thresh= 1.237E-06 alpha_mix =  0.700 |ddv_scf|^2 =  4.348E-11

     Pert. #  1: Fermi energy shift (Ry) =    -4.9175E-03     0.0000E+00

      iter #   7 total cpu time :  2571.7 secs   av.it.:  17.3
      thresh= 6.594E-07 alpha_mix =  0.700 |ddv_scf|^2 =  1.395E-11

     Pert. #  1: Fermi energy shift (Ry) =    -5.6945E-03     0.0000E+00

      iter #   8 total cpu time :  2593.6 secs   av.it.:  17.1
      thresh= 3.735E-07 alpha_mix =  0.700 |ddv_scf|^2 =  1.582E-13

     Pert. #  1: Fermi energy shift (Ry) =    -5.3737E-03     0.0000E+00

      iter #   9 total cpu time :  2617.5 secs   av.it.:  18.6
      thresh= 3.978E-08 alpha_mix =  0.700 |ddv_scf|^2 =  1.557E-13

     Pert. #  1: Fermi energy shift (Ry) =    -5.6002E-03     0.0000E+00

      iter #  10 total cpu time :  2640.7 secs   av.it.:  16.9
      thresh= 3.946E-08 alpha_mix =  0.700 |ddv_scf|^2 =  2.251E-15

     Pert. #  1: Fermi energy shift (Ry) =    -5.3884E-03     0.0000E+00

      iter #  11 total cpu time :  2656.9 secs   av.it.:  18.4
      thresh= 4.745E-09 alpha_mix =  0.700 |ddv_scf|^2 =  2.258E-15

     Pert. #  1: Fermi energy shift (Ry) =    -5.4958E-03     0.0000E+00

      iter #  12 total cpu time :  2676.1 secs   av.it.:  16.4
      thresh= 4.752E-09 alpha_mix =  0.700 |ddv_scf|^2 =  2.180E-17

     End of self-consistent calculation

     Convergence has been achieved 


     Representation #   7 mode #   7

     Self-consistent Calculation

     Pert. #  1: Fermi energy shift (Ry) =     4.6689E-01    -1.0588E-21

      iter #   1 total cpu time :  2795.6 secs   av.it.:   8.0
      thresh= 1.000E-02 alpha_mix =  0.700 |ddv_scf|^2 =  1.623E-07

     Pert. #  1: Fermi energy shift (Ry) =    -8.9556E-01     5.7903E-24

      iter #   2 total cpu time :  2823.9 secs   av.it.:  18.9
      thresh= 4.029E-05 alpha_mix =  0.700 |ddv_scf|^2 =  3.145E-07

     Pert. #  1: Fermi energy shift (Ry) =     3.7152E-01    -1.4889E-23

      iter #   3 total cpu time :  2856.5 secs   av.it.:  17.6
      thresh= 5.608E-05 alpha_mix =  0.700 |ddv_scf|^2 =  2.533E-08

     Pert. #  1: Fermi energy shift (Ry) =     5.0477E-02     3.3087E-24

      iter #   4 total cpu time :  2886.2 secs   av.it.:  16.6
      thresh= 1.592E-05 alpha_mix =  0.700 |ddv_scf|^2 =  6.422E-10

     Pert. #  1: Fermi energy shift (Ry) =     3.9903E-02    -3.6189E-25

      iter #   5 total cpu time :  2919.7 secs   av.it.:  16.4
      thresh= 2.534E-06 alpha_mix =  0.700 |ddv_scf|^2 =  1.995E-10

     Pert. #  1: Fermi energy shift (Ry) =     4.8703E-02    -1.1309E-26

      iter #   6 total cpu time :  2942.0 secs   av.it.:  16.1
      thresh= 1.413E-06 alpha_mix =  0.700 |ddv_scf|^2 =  1.836E-11

     Pert. #  1: Fermi energy shift (Ry) =     5.3380E-02     1.8095E-25

      iter #   7 total cpu time :  2967.4 secs   av.it.:  17.3
      thresh= 4.285E-07 alpha_mix =  0.700 |ddv_scf|^2 =  4.250E-12

     Pert. #  1: Fermi energy shift (Ry) =     5.0146E-02     9.0473E-26

      iter #   8 total cpu time :  3000.7 secs   av.it.:  18.1
      thresh= 2.062E-07 alpha_mix =  0.700 |ddv_scf|^2 =  2.430E-13

     Pert. #  1: Fermi energy shift (Ry) =     4.9407E-02     2.8273E-27

      iter #   9 total cpu time :  3020.2 secs   av.it.:  18.6
      thresh= 4.930E-08 alpha_mix =  0.700 |ddv_scf|^2 =  2.130E-13

     Pert. #  1: Fermi energy shift (Ry) =     5.0493E-02    -2.9081E-26

      iter #  10 total cpu time :  3051.6 secs   av.it.:  17.1
      thresh= 4.616E-08 alpha_mix =  0.700 |ddv_scf|^2 =  3.904E-14

     Pert. #  1: Fermi energy shift (Ry) =     5.0487E-02    -1.6156E-27

      iter #  11 total cpu time :  3077.2 secs   av.it.:  16.9
      thresh= 1.976E-08 alpha_mix =  0.700 |ddv_scf|^2 =  2.561E-14

     Pert. #  1: Fermi energy shift (Ry) =     5.0406E-02    -2.8273E-27

      iter #  12 total cpu time :  3097.2 secs   av.it.:  15.3
      thresh= 1.600E-08 alpha_mix =  0.700 |ddv_scf|^2 =  1.267E-15

     Pert. #  1: Fermi energy shift (Ry) =     5.0351E-02     3.5341E-28

      iter #  13 total cpu time :  3111.1 secs   av.it.:  17.4
      thresh= 3.560E-09 alpha_mix =  0.700 |ddv_scf|^2 =  7.148E-17

     End of self-consistent calculation

     Convergence has been achieved 


     Representation #   8 mode #   8

     Self-consistent Calculation

     Pert. #  1: Fermi energy shift (Ry) =    -2.1202E-01     4.2352E-22

      iter #   1 total cpu time :  3182.3 secs   av.it.:   6.9
      thresh= 1.000E-02 alpha_mix =  0.700 |ddv_scf|^2 =  4.199E-08

     Pert. #  1: Fermi energy shift (Ry) =     6.3324E-01    -1.2408E-24

      iter #   2 total cpu time :  3207.8 secs   av.it.:  18.7
      thresh= 2.049E-05 alpha_mix =  0.700 |ddv_scf|^2 =  1.198E-07

     Pert. #  1: Fermi energy shift (Ry) =    -1.3548E-01     2.4815E-24

      iter #   3 total cpu time :  3238.5 secs   av.it.:  17.1
      thresh= 3.462E-05 alpha_mix =  0.700 |ddv_scf|^2 =  1.111E-08

     Pert. #  1: Fermi energy shift (Ry) =    -2.7545E-02     2.0680E-24

      iter #   4 total cpu time :  3270.4 secs   av.it.:  16.4
      thresh= 1.054E-05 alpha_mix =  0.700 |ddv_scf|^2 =  9.738E-10

     Pert. #  1: Fermi energy shift (Ry) =     1.6615E-02     6.2039E-25

      iter #   5 total cpu time :  3300.4 secs   av.it.:  16.1
      thresh= 3.121E-06 alpha_mix =  0.700 |ddv_scf|^2 =  8.021E-11

     Pert. #  1: Fermi energy shift (Ry) =     1.7379E-02    -2.0680E-25

      iter #   6 total cpu time :  3323.9 secs   av.it.:  15.3
      thresh= 8.956E-07 alpha_mix =  0.700 |ddv_scf|^2 =  4.224E-11

     Pert. #  1: Fermi energy shift (Ry) =     1.3170E-02    -9.6935E-27

      iter #   7 total cpu time :  3349.4 secs   av.it.:  15.6
      thresh= 6.499E-07 alpha_mix =  0.700 |ddv_scf|^2 =  6.542E-12

     Pert. #  1: Fermi energy shift (Ry) =     1.2308E-02     3.2312E-27

      iter #   8 total cpu time :  3373.6 secs   av.it.:  18.1
      thresh= 2.558E-07 alpha_mix =  0.700 |ddv_scf|^2 =  2.991E-12

     Pert. #  1: Fermi energy shift (Ry) =     1.4682E-02     2.5849E-26

      iter #   9 total cpu time :  3393.7 secs   av.it.:  17.3
      thresh= 1.729E-07 alpha_mix =  0.700 |ddv_scf|^2 =  1.390E-14

     Pert. #  1: Fermi energy shift (Ry) =     1.4528E-02     6.0585E-28

      iter #  10 total cpu time :  3413.3 secs   av.it.:  18.0
      thresh= 1.179E-08 alpha_mix =  0.700 |ddv_scf|^2 =  2.694E-14

     Pert. #  1: Fermi energy shift (Ry) =     1.4445E-02    -4.0390E-28

      iter #  11 total cpu time :  3437.5 secs   av.it.:  16.3
      thresh= 1.641E-08 alpha_mix =  0.700 |ddv_scf|^2 =  4.779E-15

     Pert. #  1: Fermi energy shift (Ry) =     1.4533E-02    -3.0292E-28

      iter #  12 total cpu time :  3460.3 secs   av.it.:  16.0
      thresh= 6.913E-09 alpha_mix =  0.700 |ddv_scf|^2 =  1.579E-17

     End of self-consistent calculation

     Convergence has been achieved 


     Representation #   9 mode #   9

     Self-consistent Calculation

     Pert. #  1: Fermi energy shift (Ry) =    -1.1294E-21     6.2693E-38

      iter #   1 total cpu time :  3550.2 secs   av.it.:   6.0
      thresh= 1.000E-02 alpha_mix =  0.700 |ddv_scf|^2 =  3.089E-09

     Pert. #  1: Fermi energy shift (Ry) =    -2.8234E-22    -6.1224E-41

      iter #   2 total cpu time :  3589.5 secs   av.it.:  18.3
      thresh= 5.558E-06 alpha_mix =  0.700 |ddv_scf|^2 =  4.967E-10

     Pert. #  1: Fermi energy shift (Ry) =    -5.6469E-22     1.9132E-42

      iter #   3 total cpu time :  3611.3 secs   av.it.:  17.9
      thresh= 2.229E-06 alpha_mix =  0.700 |ddv_scf|^2 =  1.403E-12

     Pert. #  1: Fermi energy shift (Ry) =    -5.6469E-22    -2.3915E-43

      iter #   4 total cpu time :  3641.4 secs   av.it.:  18.1
      thresh= 1.184E-07 alpha_mix =  0.700 |ddv_scf|^2 =  6.699E-14

     Pert. #  1: Fermi energy shift (Ry) =    -5.6469E-22     2.3915E-43

      iter #   5 total cpu time :  3699.4 secs   av.it.:  17.6
      thresh= 2.588E-08 alpha_mix =  0.700 |ddv_scf|^2 =  1.818E-15

     Pert. #  1: Fermi energy shift (Ry) =    -5.6469E-22     5.9789E-44

      iter #   6 total cpu time :  3738.8 secs   av.it.:  18.4
      thresh= 4.264E-09 alpha_mix =  0.700 |ddv_scf|^2 =  4.320E-17

     End of self-consistent calculation

     Convergence has been achieved 


     Representation #  10 mode #  10

     Self-consistent Calculation

     Pert. #  1: Fermi energy shift (Ry) =     0.0000E+00     0.0000E+00

      iter #   1 total cpu time :  3811.0 secs   av.it.:   7.9
      thresh= 1.000E-02 alpha_mix =  0.700 |ddv_scf|^2 =  1.376E-08

     Pert. #  1: Fermi energy shift (Ry) =     0.0000E+00     0.0000E+00

      iter #   2 total cpu time :  3835.3 secs   av.it.:  18.3
      thresh= 1.173E-05 alpha_mix =  0.700 |ddv_scf|^2 =  2.401E-09

     Pert. #  1: Fermi energy shift (Ry) =     0.0000E+00     0.0000E+00

      iter #   3 total cpu time :  3878.0 secs   av.it.:  17.6
      thresh= 4.900E-06 alpha_mix =  0.700 |ddv_scf|^2 =  1.017E-11

     Pert. #  1: Fermi energy shift (Ry) =     0.0000E+00     0.0000E+00

      iter #   4 total cpu time :  4001.8 secs   av.it.:  18.0
      thresh= 3.189E-07 alpha_mix =  0.700 |ddv_scf|^2 =  3.817E-13

     Pert. #  1: Fermi energy shift (Ry) =     0.0000E+00     0.0000E+00

      iter #   5 total cpu time :  4029.4 secs   av.it.:  17.4
      thresh= 6.178E-08 alpha_mix =  0.700 |ddv_scf|^2 =  3.533E-15

     Pert. #  1: Fermi energy shift (Ry) =     0.0000E+00     0.0000E+00

      iter #   6 total cpu time :  4063.7 secs   av.it.:  18.3
      thresh= 5.944E-09 alpha_mix =  0.700 |ddv_scf|^2 =  1.468E-16

     Pert. #  1: Fermi energy shift (Ry) =     0.0000E+00     0.0000E+00

      iter #   7 total cpu time :  4080.4 secs   av.it.:  18.4
      thresh= 1.212E-09 alpha_mix =  0.700 |ddv_scf|^2 =  1.293E-17

     End of self-consistent calculation

     Convergence has been achieved 


     Representation #  11 mode #  11

     Self-consistent Calculation

     Pert. #  1: Fermi energy shift (Ry) =     0.0000E+00     0.0000E+00

      iter #   1 total cpu time :  4222.6 secs   av.it.:   6.0
      thresh= 1.000E-02 alpha_mix =  0.700 |ddv_scf|^2 =  3.405E-09

     Pert. #  1: Fermi energy shift (Ry) =     0.0000E+00     0.0000E+00

      iter #   2 total cpu time :  4251.8 secs   av.it.:  18.3
      thresh= 5.835E-06 alpha_mix =  0.700 |ddv_scf|^2 =  6.223E-10

     Pert. #  1: Fermi energy shift (Ry) =     0.0000E+00     0.0000E+00

      iter #   3 total cpu time :  4294.2 secs   av.it.:  17.9
      thresh= 2.495E-06 alpha_mix =  0.700 |ddv_scf|^2 =  1.696E-12

     Pert. #  1: Fermi energy shift (Ry) =     0.0000E+00     0.0000E+00

      iter #   4 total cpu time :  4328.8 secs   av.it.:  17.9
      thresh= 1.302E-07 alpha_mix =  0.700 |ddv_scf|^2 =  1.272E-13

     Pert. #  1: Fermi energy shift (Ry) =     0.0000E+00     0.0000E+00

      iter #   5 total cpu time :  4358.4 secs   av.it.:  17.4
      thresh= 3.567E-08 alpha_mix =  0.700 |ddv_scf|^2 =  3.242E-15

     Pert. #  1: Fermi energy shift (Ry) =     0.0000E+00     0.0000E+00

      iter #   6 total cpu time :  4376.7 secs   av.it.:  18.3
      thresh= 5.693E-09 alpha_mix =  0.700 |ddv_scf|^2 =  1.106E-16

     Pert. #  1: Fermi energy shift (Ry) =     0.0000E+00     0.0000E+00

      iter #   7 total cpu time :  4393.7 secs   av.it.:  17.9
      thresh= 1.052E-09 alpha_mix =  0.700 |ddv_scf|^2 =  2.949E-18

     End of self-consistent calculation

     Convergence has been achieved 


     Representation #  12 modes #  12  13

     Self-consistent Calculation

     Pert. #  1: Fermi energy shift (Ry) =     0.0000E+00     0.0000E+00
     Pert. #  2: Fermi energy shift (Ry) =    -1.4456E-18     0.0000E+00

      iter #   1 total cpu time :  4461.4 secs   av.it.:   6.3
      thresh= 1.000E-02 alpha_mix =  0.700 |ddv_scf|^2 =  9.066E-09

     Pert. #  1: Fermi energy shift (Ry) =    -4.6259E-18     0.0000E+00
     Pert. #  2: Fermi energy shift (Ry) =    -1.6191E-17     0.0000E+00

      iter #   2 total cpu time :  4510.7 secs   av.it.:  20.8
      thresh= 9.522E-06 alpha_mix =  0.700 |ddv_scf|^2 =  2.239E-07

     Pert. #  1: Fermi energy shift (Ry) =     2.3130E-18     0.0000E+00
     Pert. #  2: Fermi energy shift (Ry) =     2.8912E-19     0.0000E+00

      iter #   3 total cpu time :  4547.7 secs   av.it.:  17.7
      thresh= 4.731E-05 alpha_mix =  0.700 |ddv_scf|^2 =  5.038E-09

     Pert. #  1: Fermi energy shift (Ry) =     0.0000E+00     0.0000E+00
     Pert. #  2: Fermi energy shift (Ry) =     2.5411E-21     0.0000E+00

      iter #   4 total cpu time :  4597.9 secs   av.it.:  18.2
      thresh= 7.098E-06 alpha_mix =  0.700 |ddv_scf|^2 =  2.241E-11

     Pert. #  1: Fermi energy shift (Ry) =     0.0000E+00     0.0000E+00
     Pert. #  2: Fermi energy shift (Ry) =    -9.0350E-21     0.0000E+00

      iter #   5 total cpu time :  4640.7 secs   av.it.:  19.1
      thresh= 4.734E-07 alpha_mix =  0.700 |ddv_scf|^2 =  2.141E-12

     Pert. #  1: Fermi energy shift (Ry) =    -5.6469E-22     0.0000E+00
     Pert. #  2: Fermi energy shift (Ry) =     0.0000E+00     0.0000E+00

      iter #   6 total cpu time :  4675.5 secs   av.it.:  19.1
      thresh= 1.463E-07 alpha_mix =  0.700 |ddv_scf|^2 =  8.949E-13

     Pert. #  1: Fermi energy shift (Ry) =    -1.3553E-20     0.0000E+00
     Pert. #  2: Fermi energy shift (Ry) =    -4.5175E-21     0.0000E+00

      iter #   7 total cpu time :  4705.3 secs   av.it.:  19.0
      thresh= 9.460E-08 alpha_mix =  0.700 |ddv_scf|^2 =  8.218E-14

     Pert. #  1: Fermi energy shift (Ry) =     0.0000E+00     0.0000E+00
     Pert. #  2: Fermi energy shift (Ry) =    -2.2588E-20     0.0000E+00

      iter #   8 total cpu time :  4741.5 secs   av.it.:  19.7
      thresh= 2.867E-08 alpha_mix =  0.700 |ddv_scf|^2 =  1.076E-14

     Pert. #  1: Fermi energy shift (Ry) =    -9.0350E-21     0.0000E+00
     Pert. #  2: Fermi energy shift (Ry) =     2.2588E-20     0.0000E+00

      iter #   9 total cpu time :  4777.6 secs   av.it.:  19.1
      thresh= 1.037E-08 alpha_mix =  0.700 |ddv_scf|^2 =  3.215E-16

     Pert. #  1: Fermi energy shift (Ry) =     0.0000E+00     0.0000E+00
     Pert. #  2: Fermi energy shift (Ry) =     0.0000E+00     0.0000E+00

      iter #  10 total cpu time :  4822.4 secs   av.it.:  19.2
      thresh= 1.793E-09 alpha_mix =  0.700 |ddv_scf|^2 =  1.833E-16

     Pert. #  1: Fermi energy shift (Ry) =     9.0350E-21     0.0000E+00
     Pert. #  2: Fermi energy shift (Ry) =     2.7105E-20     0.0000E+00

      iter #  11 total cpu time :  4849.8 secs   av.it.:  18.4
      thresh= 1.354E-09 alpha_mix =  0.700 |ddv_scf|^2 =  7.562E-18

     End of self-consistent calculation

     Convergence has been achieved 


     Representation #  13 modes #  14  15

     Self-consistent Calculation

     Pert. #  1: Fermi energy shift (Ry) =     2.8912E-19    -7.8366E-39
     Pert. #  2: Fermi energy shift (Ry) =    -8.6736E-19    -5.4856E-38

      iter #   1 total cpu time :  4975.2 secs   av.it.:   6.6
      thresh= 1.000E-02 alpha_mix =  0.700 |ddv_scf|^2 =  8.962E-09

     Pert. #  1: Fermi energy shift (Ry) =     0.0000E+00     1.5306E-41
     Pert. #  2: Fermi energy shift (Ry) =     6.9389E-18     4.5918E-41

      iter #   2 total cpu time :  5019.3 secs   av.it.:  20.5
      thresh= 9.467E-06 alpha_mix =  0.700 |ddv_scf|^2 =  2.057E-07

     Pert. #  1: Fermi energy shift (Ry) =    -5.7824E-19    -1.0331E-40
     Pert. #  2: Fermi energy shift (Ry) =     2.8912E-19     1.2627E-40

      iter #   3 total cpu time :  5058.6 secs   av.it.:  17.9
      thresh= 4.535E-05 alpha_mix =  0.700 |ddv_scf|^2 =  6.616E-09

     Pert. #  1: Fermi energy shift (Ry) =     0.0000E+00    -2.1046E-41
     Pert. #  2: Fermi energy shift (Ry) =    -1.0842E-19     3.2525E-41

      iter #   4 total cpu time :  5110.8 secs   av.it.:  18.2
      thresh= 8.134E-06 alpha_mix =  0.700 |ddv_scf|^2 =  3.663E-11

     Pert. #  1: Fermi energy shift (Ry) =     1.8070E-20    -4.7831E-43
     Pert. #  2: Fermi energy shift (Ry) =     5.4210E-20    -1.4349E-42

      iter #   5 total cpu time :  5151.5 secs   av.it.:  19.4
      thresh= 6.052E-07 alpha_mix =  0.700 |ddv_scf|^2 =  3.368E-12

     Pert. #  1: Fermi energy shift (Ry) =     1.1294E-21    -1.1958E-43
     Pert. #  2: Fermi energy shift (Ry) =     4.5175E-21    -1.5545E-42

      iter #   6 total cpu time :  5190.4 secs   av.it.:  19.1
      thresh= 1.835E-07 alpha_mix =  0.700 |ddv_scf|^2 =  2.073E-13

     Pert. #  1: Fermi energy shift (Ry) =     2.2588E-21     8.2210E-44
     Pert. #  2: Fermi energy shift (Ry) =     1.1294E-21     1.1210E-43

      iter #   7 total cpu time :  5230.7 secs   av.it.:  19.2
      thresh= 4.553E-08 alpha_mix =  0.700 |ddv_scf|^2 =  3.579E-14

     Pert. #  1: Fermi energy shift (Ry) =     9.0350E-21    -4.1105E-44
     Pert. #  2: Fermi energy shift (Ry) =     1.5811E-20     6.3526E-44

      iter #   8 total cpu time :  5264.6 secs   av.it.:  19.5
      thresh= 1.892E-08 alpha_mix =  0.700 |ddv_scf|^2 =  7.930E-15

     Pert. #  1: Fermi energy shift (Ry) =     0.0000E+00     4.1105E-44
     Pert. #  2: Fermi energy shift (Ry) =     9.0350E-21     5.6052E-44

      iter #   9 total cpu time :  5303.3 secs   av.it.:  18.7
      thresh= 8.905E-09 alpha_mix =  0.700 |ddv_scf|^2 =  2.771E-16

     Pert. #  1: Fermi energy shift (Ry) =    -4.5175E-21     4.1105E-44
     Pert. #  2: Fermi energy shift (Ry) =     1.8070E-20     5.6052E-44

      iter #  10 total cpu time :  5335.6 secs   av.it.:  19.9
      thresh= 1.665E-09 alpha_mix =  0.700 |ddv_scf|^2 =  2.065E-16

     Pert. #  1: Fermi energy shift (Ry) =     4.5175E-21    -3.7368E-45
     Pert. #  2: Fermi energy shift (Ry) =     6.7763E-21     1.1210E-44

      iter #  11 total cpu time :  5362.6 secs   av.it.:  18.9
      thresh= 1.437E-09 alpha_mix =  0.700 |ddv_scf|^2 =  7.735E-17

     End of self-consistent calculation

     Convergence has been achieved 


     Representation #  14 modes #  16  17

     Self-consistent Calculation

     Pert. #  1: Fermi energy shift (Ry) =    -1.4456E-19    -3.7616E-37
     Pert. #  2: Fermi energy shift (Ry) =     1.0842E-19     5.0154E-37

      iter #   1 total cpu time :  5554.0 secs   av.it.:   6.0
      thresh= 1.000E-02 alpha_mix =  0.700 |ddv_scf|^2 =  6.365E-10

     Pert. #  1: Fermi energy shift (Ry) =    -8.6736E-19     7.6530E-42
     Pert. #  2: Fermi energy shift (Ry) =    -2.0238E-18     1.1479E-41

      iter #   2 total cpu time :  5604.2 secs   av.it.:  20.5
      thresh= 2.523E-06 alpha_mix =  0.700 |ddv_scf|^2 =  1.983E-09

     Pert. #  1: Fermi energy shift (Ry) =     0.0000E+00    -6.1224E-41
     Pert. #  2: Fermi energy shift (Ry) =     0.0000E+00     1.5306E-40

      iter #   3 total cpu time :  5670.4 secs   av.it.:  19.0
      thresh= 4.453E-06 alpha_mix =  0.700 |ddv_scf|^2 =  3.123E-09

     Pert. #  1: Fermi energy shift (Ry) =     9.0350E-21     1.5306E-41
     Pert. #  2: Fermi energy shift (Ry) =     4.5175E-20    -7.6530E-41

      iter #   4 total cpu time :  5713.2 secs   av.it.:  18.1
      thresh= 5.589E-06 alpha_mix =  0.700 |ddv_scf|^2 =  6.470E-12

     Pert. #  1: Fermi energy shift (Ry) =     0.0000E+00     1.5306E-41
     Pert. #  2: Fermi energy shift (Ry) =     1.4456E-19    -5.7397E-42

      iter #   5 total cpu time :  5765.8 secs   av.it.:  19.3
      thresh= 2.544E-07 alpha_mix =  0.700 |ddv_scf|^2 =  9.021E-14

     Pert. #  1: Fermi energy shift (Ry) =    -1.0842E-19     2.3915E-42
     Pert. #  2: Fermi energy shift (Ry) =     9.0350E-20    -7.1746E-43

      iter #   6 total cpu time :  5809.7 secs   av.it.:  19.1
      thresh= 3.003E-08 alpha_mix =  0.700 |ddv_scf|^2 =  2.621E-14

     Pert. #  1: Fermi energy shift (Ry) =    -3.6140E-20     4.7831E-43
     Pert. #  2: Fermi energy shift (Ry) =     1.9877E-19    -4.7831E-43

      iter #   7 total cpu time :  5842.7 secs   av.it.:  19.7
      thresh= 1.619E-08 alpha_mix =  0.700 |ddv_scf|^2 =  9.719E-15

     Pert. #  1: Fermi energy shift (Ry) =     0.0000E+00    -1.1958E-43
     Pert. #  2: Fermi energy shift (Ry) =     1.9877E-19    -1.6741E-42

      iter #   8 total cpu time :  5876.3 secs   av.it.:  19.1
      thresh= 9.859E-09 alpha_mix =  0.700 |ddv_scf|^2 =  2.187E-16

     Pert. #  1: Fermi energy shift (Ry) =    -3.6140E-20     0.0000E+00
     Pert. #  2: Fermi energy shift (Ry) =     7.2280E-20    -2.9894E-43

      iter #   9 total cpu time :  5904.3 secs   av.it.:  19.7
      thresh= 1.479E-09 alpha_mix =  0.700 |ddv_scf|^2 =  1.286E-17

     End of self-consistent calculation

     Convergence has been achieved 


     Representation #  15 modes #  18  19

     Self-consistent Calculation

     Pert. #  1: Fermi energy shift (Ry) =     2.3130E-18    -1.2539E-37
     Pert. #  2: Fermi energy shift (Ry) =    -6.3607E-18     7.5232E-37

      iter #   1 total cpu time :  6034.6 secs   av.it.:   7.0
      thresh= 1.000E-02 alpha_mix =  0.700 |ddv_scf|^2 =  2.071E-08

     Pert. #  1: Fermi energy shift (Ry) =    -4.6259E-18     2.4872E-41
     Pert. #  2: Fermi energy shift (Ry) =     2.3130E-17    -1.7028E-40

      iter #   2 total cpu time :  6110.3 secs   av.it.:  20.9
      thresh= 1.439E-05 alpha_mix =  0.700 |ddv_scf|^2 =  5.891E-07

     Pert. #  1: Fermi energy shift (Ry) =     1.1565E-18     1.9592E-39
     Pert. #  2: Fermi energy shift (Ry) =    -1.7347E-18    -5.0203E-39

      iter #   3 total cpu time :  6146.0 secs   av.it.:  17.7
      thresh= 7.675E-05 alpha_mix =  0.700 |ddv_scf|^2 =  7.131E-09

     Pert. #  1: Fermi energy shift (Ry) =     1.0842E-19    -2.4489E-40
     Pert. #  2: Fermi energy shift (Ry) =    -9.0350E-20     1.8367E-40

      iter #   4 total cpu time :  6202.0 secs   av.it.:  18.3
      thresh= 8.445E-06 alpha_mix =  0.700 |ddv_scf|^2 =  2.371E-11

     Pert. #  1: Fermi energy shift (Ry) =     1.8070E-20     1.9132E-42
     Pert. #  2: Fermi energy shift (Ry) =    -3.6140E-20     1.8176E-41

      iter #   5 total cpu time :  6246.2 secs   av.it.:  19.5
      thresh= 4.869E-07 alpha_mix =  0.700 |ddv_scf|^2 =  3.996E-12

     Pert. #  1: Fermi energy shift (Ry) =     3.6140E-20     1.4349E-42
     Pert. #  2: Fermi energy shift (Ry) =    -1.0842E-19    -7.8921E-42

      iter #   6 total cpu time :  6307.3 secs   av.it.:  19.1
      thresh= 1.999E-07 alpha_mix =  0.700 |ddv_scf|^2 =  2.765E-13

     Pert. #  1: Fermi energy shift (Ry) =     7.2280E-20     0.0000E+00
     Pert. #  2: Fermi energy shift (Ry) =    -1.0842E-19     9.5662E-43

      iter #   7 total cpu time :  6342.8 secs   av.it.:  19.3
      thresh= 5.259E-08 alpha_mix =  0.700 |ddv_scf|^2 =  1.082E-13

     Pert. #  1: Fermi energy shift (Ry) =     7.2280E-20     3.5873E-43
     Pert. #  2: Fermi energy shift (Ry) =    -1.8070E-20     8.0715E-43

      iter #   8 total cpu time :  6377.1 secs   av.it.:  19.4
      thresh= 3.289E-08 alpha_mix =  0.700 |ddv_scf|^2 =  6.067E-15

     Pert. #  1: Fermi energy shift (Ry) =     3.6140E-20     4.4842E-44
     Pert. #  2: Fermi energy shift (Ry) =    -1.2649E-19     2.1300E-43

      iter #   9 total cpu time :  6434.5 secs   av.it.:  19.4
      thresh= 7.789E-09 alpha_mix =  0.700 |ddv_scf|^2 =  1.143E-16

     Pert. #  1: Fermi energy shift (Ry) =     1.0842E-19    -1.4947E-44
     Pert. #  2: Fermi energy shift (Ry) =    -1.8070E-20     1.4200E-43

      iter #  10 total cpu time :  6483.2 secs   av.it.:  20.5
      thresh= 1.069E-09 alpha_mix =  0.700 |ddv_scf|^2 =  1.683E-16

     Pert. #  1: Fermi energy shift (Ry) =     0.0000E+00     2.9894E-44
     Pert. #  2: Fermi energy shift (Ry) =    -5.4210E-20     7.4736E-44

      iter #  11 total cpu time :  6529.2 secs   av.it.:  18.4
      thresh= 1.297E-09 alpha_mix =  0.700 |ddv_scf|^2 =  1.251E-17

     End of self-consistent calculation

     Convergence has been achieved 


     Representation #  16 modes #  20  21

     Self-consistent Calculation

     Pert. #  1: Fermi energy shift (Ry) =    -2.8912E-19     7.8366E-39
     Pert. #  2: Fermi energy shift (Ry) =     7.2280E-19    -3.9183E-39

      iter #   1 total cpu time :  6619.2 secs   av.it.:   6.9
      thresh= 1.000E-02 alpha_mix =  0.700 |ddv_scf|^2 =  4.120E-09

     Pert. #  1: Fermi energy shift (Ry) =    -2.3130E-18    -3.0612E-41
     Pert. #  2: Fermi energy shift (Ry) =    -4.6259E-18     1.5306E-41

      iter #   2 total cpu time :  6676.0 secs   av.it.:  21.3
      thresh= 6.418E-06 alpha_mix =  0.700 |ddv_scf|^2 =  9.118E-08

     Pert. #  1: Fermi energy shift (Ry) =     1.1565E-18     0.0000E+00
     Pert. #  2: Fermi energy shift (Ry) =     0.0000E+00    -1.8367E-40

      iter #   3 total cpu time :  6727.5 secs   av.it.:  17.9
      thresh= 3.020E-05 alpha_mix =  0.700 |ddv_scf|^2 =  2.322E-09

     Pert. #  1: Fermi energy shift (Ry) =     1.8070E-20     0.0000E+00
     Pert. #  2: Fermi energy shift (Ry) =     3.6140E-20     1.1479E-41

      iter #   4 total cpu time :  6805.4 secs   av.it.:  18.4
      thresh= 4.819E-06 alpha_mix =  0.700 |ddv_scf|^2 =  1.507E-11

     Pert. #  1: Fermi energy shift (Ry) =     4.5175E-21     0.0000E+00
     Pert. #  2: Fermi energy shift (Ry) =    -1.1294E-20     2.8699E-42

      iter #   5 total cpu time :  6847.4 secs   av.it.:  19.2
      thresh= 3.882E-07 alpha_mix =  0.700 |ddv_scf|^2 =  6.044E-13

     Pert. #  1: Fermi energy shift (Ry) =     1.1153E-20     0.0000E+00
     Pert. #  2: Fermi energy shift (Ry) =     2.6823E-21     1.1210E-44

      iter #   6 total cpu time :  6890.7 secs   av.it.:  19.4
      thresh= 7.774E-08 alpha_mix =  0.700 |ddv_scf|^2 =  9.228E-14

     Pert. #  1: Fermi energy shift (Ry) =     9.0350E-21    -1.4947E-44
     Pert. #  2: Fermi energy shift (Ry) =     1.3553E-20     7.4736E-45

      iter #   7 total cpu time :  6930.5 secs   av.it.:  19.6
      thresh= 3.038E-08 alpha_mix =  0.700 |ddv_scf|^2 =  2.074E-14

     Pert. #  1: Fermi energy shift (Ry) =    -1.1294E-21     0.0000E+00
     Pert. #  2: Fermi energy shift (Ry) =     5.6469E-21     4.4842E-44

      iter #   8 total cpu time :  6965.7 secs   av.it.:  19.4
      thresh= 1.440E-08 alpha_mix =  0.700 |ddv_scf|^2 =  1.267E-15

     Pert. #  1: Fermi energy shift (Ry) =     9.0350E-21     0.0000E+00
     Pert. #  2: Fermi energy shift (Ry) =    -2.2588E-21    -1.8684E-44

      iter #   9 total cpu time :  7001.9 secs   av.it.:  20.4
      thresh= 3.560E-09 alpha_mix =  0.700 |ddv_scf|^2 =  5.191E-15

     Pert. #  1: Fermi energy shift (Ry) =     1.1294E-21     0.0000E+00
     Pert. #  2: Fermi energy shift (Ry) =    -1.1294E-20    -4.4842E-44

      iter #  10 total cpu time :  7032.5 secs   av.it.:  18.1
      thresh= 7.205E-09 alpha_mix =  0.700 |ddv_scf|^2 =  8.193E-17

     End of self-consistent calculation

     Convergence has been achieved 


     Representation #  17 modes #  22  23

     Self-consistent Calculation

     Pert. #  1: Fermi energy shift (Ry) =    -5.7824E-19     0.0000E+00
     Pert. #  2: Fermi energy shift (Ry) =    -8.6736E-19     0.0000E+00

      iter #   1 total cpu time :  7188.0 secs   av.it.:   8.0
      thresh= 1.000E-02 alpha_mix =  0.700 |ddv_scf|^2 =  8.464E-09

     Pert. #  1: Fermi energy shift (Ry) =    -2.8912E-19     0.0000E+00
     Pert. #  2: Fermi energy shift (Ry) =     7.2280E-20    -1.5306E-41

      iter #   2 total cpu time :  7233.8 secs   av.it.:  20.1
      thresh= 9.200E-06 alpha_mix =  0.700 |ddv_scf|^2 =  4.851E-09

     Pert. #  1: Fermi energy shift (Ry) =     1.0842E-19     1.5306E-41
     Pert. #  2: Fermi energy shift (Ry) =     1.0842E-19     3.8265E-42

      iter #   3 total cpu time :  7279.0 secs   av.it.:  19.1
      thresh= 6.965E-06 alpha_mix =  0.700 |ddv_scf|^2 =  1.454E-10

     Pert. #  1: Fermi energy shift (Ry) =    -2.8912E-19     0.0000E+00
     Pert. #  2: Fermi energy shift (Ry) =    -1.5902E-18    -7.6530E-42

      iter #   4 total cpu time :  7334.7 secs   av.it.:  20.1
      thresh= 1.206E-06 alpha_mix =  0.700 |ddv_scf|^2 =  8.956E-10

     Pert. #  1: Fermi energy shift (Ry) =    -2.8912E-19    -3.8265E-42
     Pert. #  2: Fermi energy shift (Ry) =     0.0000E+00     0.0000E+00

      iter #   5 total cpu time :  7412.2 secs   av.it.:  17.6
      thresh= 2.993E-06 alpha_mix =  0.700 |ddv_scf|^2 =  1.728E-12

     Pert. #  1: Fermi energy shift (Ry) =    -1.4456E-19     1.1958E-43
     Pert. #  2: Fermi energy shift (Ry) =     1.0842E-19     5.9789E-44

      iter #   6 total cpu time :  7445.4 secs   av.it.:  19.4
      thresh= 1.315E-07 alpha_mix =  0.700 |ddv_scf|^2 =  1.094E-13

     Pert. #  1: Fermi energy shift (Ry) =    -1.4456E-19     0.0000E+00
     Pert. #  2: Fermi energy shift (Ry) =     3.6140E-20     0.0000E+00

      iter #   7 total cpu time :  7482.7 secs   av.it.:  19.7
      thresh= 3.308E-08 alpha_mix =  0.700 |ddv_scf|^2 =  2.686E-14

     Pert. #  1: Fermi energy shift (Ry) =    -7.2280E-20     0.0000E+00
     Pert. #  2: Fermi energy shift (Ry) =     1.0842E-19     0.0000E+00

      iter #   8 total cpu time :  7520.5 secs   av.it.:  19.5
      thresh= 1.639E-08 alpha_mix =  0.700 |ddv_scf|^2 =  4.009E-15

     Pert. #  1: Fermi energy shift (Ry) =    -2.1684E-19     5.6052E-45
     Pert. #  2: Fermi energy shift (Ry) =     1.8070E-19     0.0000E+00

      iter #   9 total cpu time :  7554.4 secs   av.it.:  19.9
      thresh= 6.331E-09 alpha_mix =  0.700 |ddv_scf|^2 =  5.531E-16

     Pert. #  1: Fermi energy shift (Ry) =    -7.2280E-20    -7.4736E-45
     Pert. #  2: Fermi energy shift (Ry) =     0.0000E+00     0.0000E+00

      iter #  10 total cpu time :  7586.0 secs   av.it.:  20.1
      thresh= 2.352E-09 alpha_mix =  0.700 |ddv_scf|^2 =  3.065E-15

     Pert. #  1: Fermi energy shift (Ry) =    -7.2280E-20    -2.2421E-44
     Pert. #  2: Fermi energy shift (Ry) =     7.2280E-20     1.4947E-44

      iter #  11 total cpu time :  7611.2 secs   av.it.:  18.1
      thresh= 5.536E-09 alpha_mix =  0.700 |ddv_scf|^2 =  9.800E-17

     End of self-consistent calculation

     Convergence has been achieved 


     Representation #  18 modes #  24  25

     Self-consistent Calculation

     Pert. #  1: Fermi energy shift (Ry) =     8.6736E-19     3.9183E-39
     Pert. #  2: Fermi energy shift (Ry) =    -1.3010E-18     1.5673E-38

      iter #   1 total cpu time :  7785.7 secs   av.it.:   6.0
      thresh= 1.000E-02 alpha_mix =  0.700 |ddv_scf|^2 =  1.988E-09

     Pert. #  1: Fermi energy shift (Ry) =    -4.3368E-19    -7.6530E-42
     Pert. #  2: Fermi energy shift (Ry) =     5.0596E-19    -8.6096E-42

      iter #   2 total cpu time :  7864.3 secs   av.it.:  19.9
      thresh= 4.459E-06 alpha_mix =  0.700 |ddv_scf|^2 =  1.550E-09

     Pert. #  1: Fermi energy shift (Ry) =    -5.7824E-19    -1.9132E-42
     Pert. #  2: Fermi energy shift (Ry) =    -1.4456E-18    -3.8265E-42

      iter #   3 total cpu time :  7907.8 secs   av.it.:  19.9
      thresh= 3.937E-06 alpha_mix =  0.700 |ddv_scf|^2 =  4.083E-09

     Pert. #  1: Fermi energy shift (Ry) =    -1.4456E-19     7.6530E-42
     Pert. #  2: Fermi energy shift (Ry) =    -3.6140E-20     1.5306E-41

      iter #   4 total cpu time :  7966.0 secs   av.it.:  17.7
      thresh= 6.390E-06 alpha_mix =  0.700 |ddv_scf|^2 =  3.468E-11

     Pert. #  1: Fermi energy shift (Ry) =    -1.4456E-19    -7.1746E-43
     Pert. #  2: Fermi energy shift (Ry) =    -7.2280E-19    -7.1746E-43

      iter #   5 total cpu time :  8016.3 secs   av.it.:  19.3
      thresh= 5.889E-07 alpha_mix =  0.700 |ddv_scf|^2 =  3.700E-13

     Pert. #  1: Fermi energy shift (Ry) =    -2.8912E-19    -1.1958E-43
     Pert. #  2: Fermi energy shift (Ry) =    -3.6140E-19    -1.3452E-43

      iter #   6 total cpu time :  8059.8 secs   av.it.:  19.4
      thresh= 6.083E-08 alpha_mix =  0.700 |ddv_scf|^2 =  4.568E-14

     Pert. #  1: Fermi energy shift (Ry) =     0.0000E+00    -7.4736E-45
     Pert. #  2: Fermi energy shift (Ry) =    -2.1684E-19    -1.4947E-44

      iter #   7 total cpu time :  8091.0 secs   av.it.:  19.4
      thresh= 2.137E-08 alpha_mix =  0.700 |ddv_scf|^2 =  4.626E-15

     Pert. #  1: Fermi energy shift (Ry) =     0.0000E+00    -2.9894E-44
     Pert. #  2: Fermi energy shift (Ry) =    -7.2280E-20    -3.3631E-44

      iter #   8 total cpu time :  8122.3 secs   av.it.:  19.2
      thresh= 6.802E-09 alpha_mix =  0.700 |ddv_scf|^2 =  8.330E-16

     Pert. #  1: Fermi energy shift (Ry) =    -1.4456E-19    -7.4736E-45
     Pert. #  2: Fermi energy shift (Ry) =     2.1684E-19    -3.1763E-44

      iter #   9 total cpu time :  8157.2 secs   av.it.:  20.4
      thresh= 2.886E-09 alpha_mix =  0.700 |ddv_scf|^2 =  5.499E-15

     Pert. #  1: Fermi energy shift (Ry) =     0.0000E+00     0.0000E+00
     Pert. #  2: Fermi energy shift (Ry) =    -2.8912E-19    -1.1210E-44

      iter #  10 total cpu time :  8189.0 secs   av.it.:  17.7
      thresh= 7.416E-09 alpha_mix =  0.700 |ddv_scf|^2 =  5.351E-17

     End of self-consistent calculation

     Convergence has been achieved 


     Representation #  19 modes #  26  27

     Self-consistent Calculation

     Pert. #  1: Fermi energy shift (Ry) =     1.1565E-18     7.8366E-39
     Pert. #  2: Fermi energy shift (Ry) =     2.0238E-18     6.6611E-38

      iter #   1 total cpu time :  8356.4 secs   av.it.:   8.0
      thresh= 1.000E-02 alpha_mix =  0.700 |ddv_scf|^2 =  1.382E-08

     Pert. #  1: Fermi energy shift (Ry) =    -9.2519E-18     3.0612E-41
     Pert. #  2: Fermi energy shift (Ry) =    -2.5443E-17    -1.2245E-40

      iter #   2 total cpu time :  8453.8 secs   av.it.:  21.1
      thresh= 1.176E-05 alpha_mix =  0.700 |ddv_scf|^2 =  3.599E-07

     Pert. #  1: Fermi energy shift (Ry) =     5.7824E-19    -4.8979E-40
     Pert. #  2: Fermi energy shift (Ry) =     3.1803E-18    -4.8979E-40

      iter #   3 total cpu time :  8591.7 secs   av.it.:  17.7
      thresh= 5.999E-05 alpha_mix =  0.700 |ddv_scf|^2 =  5.190E-09

     Pert. #  1: Fermi energy shift (Ry) =     1.0842E-19     3.0612E-41
     Pert. #  2: Fermi energy shift (Ry) =    -2.5298E-19     4.5918E-41

      iter #   4 total cpu time :  8652.6 secs   av.it.:  18.5
      thresh= 7.204E-06 alpha_mix =  0.700 |ddv_scf|^2 =  7.780E-11

     Pert. #  1: Fermi energy shift (Ry) =     0.0000E+00    -3.8265E-42
     Pert. #  2: Fermi energy shift (Ry) =     7.2280E-20     0.0000E+00

      iter #   5 total cpu time :  8698.4 secs   av.it.:  19.0
      thresh= 8.820E-07 alpha_mix =  0.700 |ddv_scf|^2 =  2.254E-12

     Pert. #  1: Fermi energy shift (Ry) =     0.0000E+00    -1.9132E-42
     Pert. #  2: Fermi energy shift (Ry) =     3.6140E-20    -2.3915E-42

      iter #   6 total cpu time :  8741.3 secs   av.it.:  19.3
      thresh= 1.501E-07 alpha_mix =  0.700 |ddv_scf|^2 =  1.493E-13

     Pert. #  1: Fermi energy shift (Ry) =     7.2280E-20     1.1958E-43
     Pert. #  2: Fermi energy shift (Ry) =     9.0350E-20     0.0000E+00

      iter #   7 total cpu time :  8779.9 secs   av.it.:  19.7
      thresh= 3.863E-08 alpha_mix =  0.700 |ddv_scf|^2 =  6.809E-14

     Pert. #  1: Fermi energy shift (Ry) =     7.2280E-20    -1.1958E-43
     Pert. #  2: Fermi energy shift (Ry) =     1.0842E-19    -5.9789E-44

      iter #   8 total cpu time :  8818.9 secs   av.it.:  19.0
      thresh= 2.609E-08 alpha_mix =  0.700 |ddv_scf|^2 =  1.259E-15

     Pert. #  1: Fermi energy shift (Ry) =    -1.8070E-19     0.0000E+00
     Pert. #  2: Fermi energy shift (Ry) =     5.4210E-20    -2.0926E-43

      iter #   9 total cpu time :  8853.9 secs   av.it.:  19.9
      thresh= 3.548E-09 alpha_mix =  0.700 |ddv_scf|^2 =  9.662E-17

     End of self-consistent calculation

     Convergence has been achieved 


     Representation #  20 modes #  28  29

     Self-consistent Calculation

     Pert. #  1: Fermi energy shift (Ry) =    -2.8912E-18     1.8808E-37
     Pert. #  2: Fermi energy shift (Ry) =    -5.7824E-19     1.2539E-37

      iter #   1 total cpu time :  9024.9 secs   av.it.:   7.0
      thresh= 1.000E-02 alpha_mix =  0.700 |ddv_scf|^2 =  1.388E-08

     Pert. #  1: Fermi energy shift (Ry) =     3.2382E-17     0.0000E+00
     Pert. #  2: Fermi energy shift (Ry) =     2.3130E-18    -9.1835E-41

      iter #   2 total cpu time :  9073.9 secs   av.it.:  20.6
      thresh= 1.178E-05 alpha_mix =  0.700 |ddv_scf|^2 =  3.412E-07

     Pert. #  1: Fermi energy shift (Ry) =    -3.4694E-18    -9.7958E-40
     Pert. #  2: Fermi energy shift (Ry) =    -5.7824E-19     0.0000E+00

      iter #   3 total cpu time :  9116.9 secs   av.it.:  17.7
      thresh= 5.841E-05 alpha_mix =  0.700 |ddv_scf|^2 =  8.112E-09

     Pert. #  1: Fermi energy shift (Ry) =     5.4210E-20    -1.8367E-40
     Pert. #  2: Fermi energy shift (Ry) =     3.6140E-20     1.2245E-40

      iter #   4 total cpu time :  9163.9 secs   av.it.:  18.3
      thresh= 9.007E-06 alpha_mix =  0.700 |ddv_scf|^2 =  4.596E-11

     Pert. #  1: Fermi energy shift (Ry) =     3.6140E-19    -2.2959E-41
     Pert. #  2: Fermi energy shift (Ry) =    -3.6140E-20    -1.5306E-41

      iter #   5 total cpu time :  9196.4 secs   av.it.:  19.4
      thresh= 6.779E-07 alpha_mix =  0.700 |ddv_scf|^2 =  3.859E-12

     Pert. #  1: Fermi energy shift (Ry) =     2.8912E-19     9.5662E-43
     Pert. #  2: Fermi energy shift (Ry) =     1.4456E-19    -1.4349E-42

      iter #   6 total cpu time :  9246.5 secs   av.it.:  19.1
      thresh= 1.964E-07 alpha_mix =  0.700 |ddv_scf|^2 =  8.401E-14

     Pert. #  1: Fermi energy shift (Ry) =     2.8912E-19    -8.9683E-44
     Pert. #  2: Fermi energy shift (Ry) =     0.0000E+00     0.0000E+00

      iter #   7 total cpu time :  9278.6 secs   av.it.:  19.6
      thresh= 2.898E-08 alpha_mix =  0.700 |ddv_scf|^2 =  2.855E-14

     Pert. #  1: Fermi energy shift (Ry) =     1.4456E-19    -2.3915E-43
     Pert. #  2: Fermi energy shift (Ry) =     2.5298E-19     0.0000E+00

      iter #   8 total cpu time :  9323.8 secs   av.it.:  19.3
      thresh= 1.690E-08 alpha_mix =  0.700 |ddv_scf|^2 =  4.888E-15

     Pert. #  1: Fermi energy shift (Ry) =     7.2280E-20    -1.1958E-43
     Pert. #  2: Fermi energy shift (Ry) =     7.2280E-20     1.7937E-43

      iter #   9 total cpu time :  9357.9 secs   av.it.:  19.1
      thresh= 6.992E-09 alpha_mix =  0.700 |ddv_scf|^2 =  1.556E-16

     Pert. #  1: Fermi energy shift (Ry) =     2.1684E-19    -5.9789E-44
     Pert. #  2: Fermi energy shift (Ry) =     7.2280E-20     5.9789E-44

      iter #  10 total cpu time :  9397.7 secs   av.it.:  20.2
      thresh= 1.247E-09 alpha_mix =  0.700 |ddv_scf|^2 =  1.295E-16

     Pert. #  1: Fermi energy shift (Ry) =     4.3368E-19    -1.4947E-43
     Pert. #  2: Fermi energy shift (Ry) =     1.0842E-19     5.9789E-44

      iter #  11 total cpu time :  9430.9 secs   av.it.:  18.9
      thresh= 1.138E-09 alpha_mix =  0.700 |ddv_scf|^2 =  5.942E-17

     End of self-consistent calculation

     Convergence has been achieved 


     Representation #  21 modes #  30  31

     Self-consistent Calculation

     Pert. #  1: Fermi energy shift (Ry) =     7.2280E-19    -5.4856E-38
     Pert. #  2: Fermi energy shift (Ry) =    -5.0596E-19     0.0000E+00

      iter #   1 total cpu time :  9509.8 secs   av.it.:   8.0
      thresh= 1.000E-02 alpha_mix =  0.700 |ddv_scf|^2 =  2.551E-08

     Pert. #  1: Fermi energy shift (Ry) =     4.6259E-18    -3.0612E-41
     Pert. #  2: Fermi energy shift (Ry) =     2.3130E-18     1.5306E-41

      iter #   2 total cpu time :  9555.9 secs   av.it.:  20.6
      thresh= 1.597E-05 alpha_mix =  0.700 |ddv_scf|^2 =  1.580E-07

     Pert. #  1: Fermi energy shift (Ry) =    -4.6259E-18    -2.4489E-40
     Pert. #  2: Fermi energy shift (Ry) =     6.9389E-18     0.0000E+00

      iter #   3 total cpu time :  9604.0 secs   av.it.:  18.7
      thresh= 3.975E-05 alpha_mix =  0.700 |ddv_scf|^2 =  1.020E-07

     Pert. #  1: Fermi energy shift (Ry) =     5.7824E-19     0.0000E+00
     Pert. #  2: Fermi energy shift (Ry) =     0.0000E+00    -2.4489E-40

      iter #   4 total cpu time :  9657.7 secs   av.it.:  17.9
      thresh= 3.194E-05 alpha_mix =  0.700 |ddv_scf|^2 =  6.993E-11

     Pert. #  1: Fermi energy shift (Ry) =    -2.8912E-19    -1.9132E-42
     Pert. #  2: Fermi energy shift (Ry) =    -3.6140E-19    -1.9132E-42

      iter #   5 total cpu time :  9749.1 secs   av.it.:  20.1
      thresh= 8.362E-07 alpha_mix =  0.700 |ddv_scf|^2 =  7.872E-12

     Pert. #  1: Fermi energy shift (Ry) =     5.7824E-19    -1.9132E-42
     Pert. #  2: Fermi energy shift (Ry) =    -5.7824E-19     9.5662E-43

      iter #   6 total cpu time :  9795.2 secs   av.it.:  18.9
      thresh= 2.806E-07 alpha_mix =  0.700 |ddv_scf|^2 =  1.324E-12

     Pert. #  1: Fermi energy shift (Ry) =     1.4456E-19    -4.1852E-43
     Pert. #  2: Fermi energy shift (Ry) =    -5.7824E-19     0.0000E+00

      iter #   7 total cpu time :  9825.9 secs   av.it.:  19.0
      thresh= 1.151E-07 alpha_mix =  0.700 |ddv_scf|^2 =  2.856E-13

     Pert. #  1: Fermi energy shift (Ry) =     1.4456E-19     0.0000E+00
     Pert. #  2: Fermi energy shift (Ry) =    -3.6140E-19     1.1958E-43

      iter #   8 total cpu time :  9866.6 secs   av.it.:  19.7
      thresh= 5.344E-08 alpha_mix =  0.700 |ddv_scf|^2 =  6.046E-15

     Pert. #  1: Fermi energy shift (Ry) =     5.7824E-19    -5.9789E-44
     Pert. #  2: Fermi energy shift (Ry) =    -5.7824E-19    -1.1958E-43

      iter #   9 total cpu time :  9904.6 secs   av.it.:  20.4
      thresh= 7.776E-09 alpha_mix =  0.700 |ddv_scf|^2 =  1.680E-14

     Pert. #  1: Fermi energy shift (Ry) =    -2.8912E-19    -1.1958E-43
     Pert. #  2: Fermi energy shift (Ry) =    -2.8912E-19    -1.1958E-43

      iter #  10 total cpu time :  9954.4 secs   av.it.:  19.0
      thresh= 1.296E-08 alpha_mix =  0.700 |ddv_scf|^2 =  1.783E-14

     Pert. #  1: Fermi energy shift (Ry) =     4.3368E-19     0.0000E+00
     Pert. #  2: Fermi energy shift (Ry) =    -5.0596E-19     5.9789E-44

      iter #  11 total cpu time :  9992.2 secs   av.it.:  18.2
      thresh= 1.335E-08 alpha_mix =  0.700 |ddv_scf|^2 =  9.617E-17

     End of self-consistent calculation

     Convergence has been achieved 


     Representation #  22 modes #  32  33

     Self-consistent Calculation

     Pert. #  1: Fermi energy shift (Ry) =    -4.5175E-21     3.9183E-39
     Pert. #  2: Fermi energy shift (Ry) =    -4.5175E-21    -1.1755E-38

      iter #   1 total cpu time : 10078.8 secs   av.it.:   6.0
      thresh= 1.000E-02 alpha_mix =  0.700 |ddv_scf|^2 =  8.415E-10

     Pert. #  1: Fermi energy shift (Ry) =    -5.7824E-19    -1.5306E-41
     Pert. #  2: Fermi energy shift (Ry) =    -5.7824E-19     0.0000E+00

      iter #   2 total cpu time : 10151.6 secs   av.it.:  20.9
      thresh= 2.901E-06 alpha_mix =  0.700 |ddv_scf|^2 =  8.307E-09

     Pert. #  1: Fermi energy shift (Ry) =    -2.8912E-19     0.0000E+00
     Pert. #  2: Fermi energy shift (Ry) =    -5.7824E-19     7.6530E-42

      iter #   3 total cpu time : 10200.5 secs   av.it.:  18.3
      thresh= 9.114E-06 alpha_mix =  0.700 |ddv_scf|^2 =  1.625E-09

     Pert. #  1: Fermi energy shift (Ry) =     0.0000E+00     0.0000E+00
     Pert. #  2: Fermi energy shift (Ry) =     1.0842E-19     1.1479E-41

      iter #   4 total cpu time : 10243.9 secs   av.it.:  18.3
      thresh= 4.031E-06 alpha_mix =  0.700 |ddv_scf|^2 =  1.080E-11

     Pert. #  1: Fermi energy shift (Ry) =    -1.4456E-19     1.9132E-42
     Pert. #  2: Fermi energy shift (Ry) =     3.6140E-20     0.0000E+00

      iter #   5 total cpu time : 10283.8 secs   av.it.:  19.2
      thresh= 3.287E-07 alpha_mix =  0.700 |ddv_scf|^2 =  7.660E-14

     Pert. #  1: Fermi energy shift (Ry) =     0.0000E+00     1.1958E-43
     Pert. #  2: Fermi energy shift (Ry) =     1.8070E-20     5.9789E-44

      iter #   6 total cpu time : 10316.7 secs   av.it.:  19.7
      thresh= 2.768E-08 alpha_mix =  0.700 |ddv_scf|^2 =  2.965E-14

     Pert. #  1: Fermi energy shift (Ry) =    -2.1684E-19     1.4947E-43
     Pert. #  2: Fermi energy shift (Ry) =     1.0842E-19    -1.4947E-43

      iter #   7 total cpu time : 10354.4 secs   av.it.:  19.2
      thresh= 1.722E-08 alpha_mix =  0.700 |ddv_scf|^2 =  1.070E-15

     Pert. #  1: Fermi energy shift (Ry) =     0.0000E+00     1.4947E-44
     Pert. #  2: Fermi energy shift (Ry) =     3.6140E-20     1.4947E-44

      iter #   8 total cpu time : 10390.4 secs   av.it.:  19.9
      thresh= 3.272E-09 alpha_mix =  0.700 |ddv_scf|^2 =  3.666E-16

     Pert. #  1: Fermi energy shift (Ry) =    -7.2280E-20     2.9894E-44
     Pert. #  2: Fermi energy shift (Ry) =     3.6140E-20     8.9683E-44

      iter #   9 total cpu time : 10422.1 secs   av.it.:  19.3
      thresh= 1.915E-09 alpha_mix =  0.700 |ddv_scf|^2 =  9.707E-17

     End of self-consistent calculation

     Convergence has been achieved 

     Number of q in the star =    1
     List of q in the star:
          1   0.000000000   0.000000000   0.000000000

     Diagonalizing the dynamical matrix

     q = (    0.000000000   0.000000000   0.000000000 ) 

 **************************************************************************
     freq (    1) =      -0.180269 [THz] =      -6.013128 [cm-1]
     freq (    2) =       0.044088 [THz] =       1.470618 [cm-1]
     freq (    3) =       0.044088 [THz] =       1.470618 [cm-1]
     freq (    4) =       2.728467 [THz] =      91.011859 [cm-1]
     freq (    5) =       2.728467 [THz] =      91.011859 [cm-1]
     freq (    6) =       3.289609 [THz] =     109.729539 [cm-1]
     freq (    7) =       3.517039 [THz] =     117.315780 [cm-1]
     freq (    8) =       3.517039 [THz] =     117.315780 [cm-1]
     freq (    9) =       4.852703 [THz] =     161.868759 [cm-1]
     freq (   10) =       4.852703 [THz] =     161.868759 [cm-1]
     freq (   11) =       5.259763 [THz] =     175.446794 [cm-1]
     freq (   12) =       5.573877 [THz] =     185.924514 [cm-1]
     freq (   13) =       5.697048 [THz] =     190.033076 [cm-1]
     freq (   14) =       5.697048 [THz] =     190.033076 [cm-1]
     freq (   15) =       6.331459 [THz] =     211.194726 [cm-1]
     freq (   16) =       6.367624 [THz] =     212.401081 [cm-1]
     freq (   17) =       6.367624 [THz] =     212.401081 [cm-1]
     freq (   18) =       6.769677 [THz] =     225.812132 [cm-1]
     freq (   19) =       7.018738 [THz] =     234.119902 [cm-1]
     freq (   20) =       7.018738 [THz] =     234.119902 [cm-1]
     freq (   21) =       7.575537 [THz] =     252.692709 [cm-1]
     freq (   22) =       7.693079 [THz] =     256.613488 [cm-1]
     freq (   23) =       7.693079 [THz] =     256.613488 [cm-1]
     freq (   24) =       7.793631 [THz] =     259.967560 [cm-1]
     freq (   25) =       8.221221 [THz] =     274.230417 [cm-1]
     freq (   26) =       8.221221 [THz] =     274.230417 [cm-1]
     freq (   27) =       8.630631 [THz] =     287.886853 [cm-1]
     freq (   28) =       8.894637 [THz] =     296.693170 [cm-1]
     freq (   29) =       8.894637 [THz] =     296.693170 [cm-1]
     freq (   30) =      10.051757 [THz] =     335.290536 [cm-1]
     freq (   31) =      10.393506 [THz] =     346.690044 [cm-1]
     freq (   32) =      10.393506 [THz] =     346.690044 [cm-1]
     freq (   33) =      11.705295 [THz] =     390.446605 [cm-1]
 **************************************************************************

     Mode symmetry, C_3v (3m)   point group:

     freq (   1-   1) =         -6.0  [cm-1]   --> A_1  L_1        I+R
     freq (   2-   3) =          1.5  [cm-1]   --> E    L_3        I+R
     freq (   4-   5) =         91.0  [cm-1]   --> E    L_3        I+R
     freq (   6-   6) =        109.7  [cm-1]   --> A_2  L_2           
     freq (   7-   8) =        117.3  [cm-1]   --> E    L_3        I+R
     freq (   9-  10) =        161.9  [cm-1]   --> E    L_3        I+R
     freq (  11-  11) =        175.4  [cm-1]   --> A_1  L_1        I+R
     freq (  12-  12) =        185.9  [cm-1]   --> A_1  L_1        I+R
     freq (  13-  14) =        190.0  [cm-1]   --> E    L_3        I+R
     freq (  15-  15) =        211.2  [cm-1]   --> A_1  L_1        I+R
     freq (  16-  17) =        212.4  [cm-1]   --> E    L_3        I+R
     freq (  18-  18) =        225.8  [cm-1]   --> A_2  L_2           
     freq (  19-  20) =        234.1  [cm-1]   --> E    L_3        I+R
     freq (  21-  21) =        252.7  [cm-1]   --> A_1  L_1        I+R
     freq (  22-  23) =        256.6  [cm-1]   --> E    L_3        I+R
     freq (  24-  24) =        260.0  [cm-1]   --> A_2  L_2           
     freq (  25-  26) =        274.2  [cm-1]   --> E    L_3        I+R
     freq (  27-  27) =        287.9  [cm-1]   --> A_1  L_1        I+R
     freq (  28-  29) =        296.7  [cm-1]   --> E    L_3        I+R
     freq (  30-  30) =        335.3  [cm-1]   --> A_1  L_1        I+R
     freq (  31-  32) =        346.7  [cm-1]   --> E    L_3        I+R
     freq (  33-  33) =        390.4  [cm-1]   --> A_1  L_1        I+R

     Calculation of q =    0.2886751  -0.5000000   0.0000000

     Parallelization info
     --------------------
     sticks:   dense  smooth     PW     G-vecs:    dense   smooth      PW
     Min         140     140     39                34374    34374    5070
     Max         141     141     41                34388    34388    5077
     Sum        4483    4483   1261              1100103  1100103  162375

     Using Slab Decomposition


     Title: 
     Nb3Cl8                                                                     


     bravais-lattice index     =            0
     lattice parameter (alat)  =      12.7288  a.u.
     unit-cell volume          =    8140.0419 (a.u.)^3
     number of atoms/cell      =           11
     number of atomic types    =            2
     number of electrons       =        95.00
     number of Kohn-Sham states=           58
     kinetic-energy cutoff     =     100.0000  Ry
     charge density cutoff     =     400.0000  Ry
     Exchange-correlation= PBE
                           (   1   4   3   4   0   0   0)

     celldm(1)=  12.728776  celldm(2)=   0.000000  celldm(3)=   0.000000
     celldm(4)=   0.000000  celldm(5)=   0.000000  celldm(6)=   0.000000

     crystal axes: (cart. coord. in units of alat)
               a(1) = (   0.866025   0.500000   0.000000 )  
               a(2) = (  -0.866025   0.500000   0.000000 )  
               a(3) = (   0.000000   0.000000   4.557598 )  

     reciprocal axes: (cart. coord. in units 2 pi/alat)
               b(1) = (  0.577350  1.000000 -0.000000 )  
               b(2) = ( -0.577350  1.000000  0.000000 )  
               b(3) = (  0.000000 -0.000000  0.219414 )  


     PseudoPot. # 1 for Nb read from file:
     /scratch-shared/mroesner/Nb3X8_cDFPT/pp/Nb_ONCV_PBE-1.2.upf
     MD5 check sum: 2c750ac0b6910ff4cf0ab5f6c4124a64
     Pseudo is Norm-conserving, Zval = 13.0
     Generated using ONCVPSP code by D. R. Hamann
     Using radial grid of  602 points,  6 beta functions with: 
                l(1) =   0
                l(2) =   0
                l(3) =   1
                l(4) =   1
                l(5) =   2
                l(6) =   2

     PseudoPot. # 2 for Cl read from file:
     /scratch-shared/mroesner/Nb3X8_cDFPT/pp/Cl_ONCV_PBE-1.2.upf
     MD5 check sum: 0f993535b366f580ecbcdacce103c843
     Pseudo is Norm-conserving, Zval =  7.0
     Generated using ONCVPSP code by D. R. Hamann
     Using radial grid of  602 points,  4 beta functions with: 
                l(1) =   0
                l(2) =   0
                l(3) =   1
                l(4) =   1

     atomic species   valence    mass     pseudopotential
     Nb               13.00    92.90637     Nb( 1.00)
     Cl                7.00    35.45270     Cl( 1.00)

      6 Sym. Ops. (no inversion) found



   Cartesian axes

     site n.     atom                  positions (alat units)
         1        Nb     tau(   1) = (  -0.2402445   0.0000000   0.4640943  )
         2        Nb     tau(   2) = (   0.1201223  -0.2080579   0.4640943  )
         3        Nb     tau(   3) = (   0.1201223   0.2080579   0.4640943  )
         4        Cl     tau(   4) = (   0.2850443  -0.0000000   0.2176560  )
         5        Cl     tau(   5) = (  -0.1425221   0.2468556   0.2176560  )
         6        Cl     tau(   6) = (  -0.1425221  -0.2468556   0.2176560  )
         7        Cl     tau(   7) = (  -0.5773503  -0.0000000   0.2609354  )
         8        Cl     tau(   8) = (   0.8630545  -0.0000000   0.6655026  )
         9        Cl     tau(   9) = (   0.4344982   0.2474271   0.6655026  )
        10        Cl     tau(  10) = (   0.4344982  -0.2474271   0.6655026  )
        11        Cl     tau(  11) = (   0.0000000   0.0000000   0.7383673  )

     --------------------------------------------
     DFT-D3 Dispersion Correction (no 3-body):
     --------------------------------------------
       Reference C6 values for interpolation: 

         atom   Coordination number   C6
         Cl         0.000           184.69
         Cl         0.997           180.80
         Nb         0.000          2950.50
         Nb         1.954          1161.16
         Nb         2.922           857.79

       Values used:

         atom   Coordination number  R0_AB[au]  C6      C8
         Nb         8.244            3.647    857.79 111659.18
         Nb         8.244            3.647    857.79 111659.18
         Nb         8.244            3.647    857.79 111659.18
         Cl         2.244            2.933    180.80   7543.50
         Cl         2.244            2.933    180.80   7543.50
         Cl         2.244            2.933    180.80   7543.50
         Cl         3.076            2.933    180.80   7543.49
         Cl         2.251            2.933    180.80   7543.50
         Cl         2.251            2.933    180.80   7543.50
         Cl         2.251            2.933    180.80   7543.50
         Cl         3.133            2.933    180.80   7543.49

         Molecular C6 ( Ry / a.u.^6 ) =     37724.98


     number of k points=    26  Gaussian smearing, width (Ry)=  0.0037
                       cart. coord. in units 2pi/alat
        k(    1) = (   0.0000000   0.0000000   0.0000000), wk =   0.0555556
        k(    2) = (   0.2886751  -0.5000000   0.0000000), wk =   0.0000000
        k(    3) = (  -0.0962250   0.1666667   0.0000000), wk =   0.1111111
        k(    4) = (   0.1924501  -0.3333333   0.0000000), wk =   0.0000000
        k(    5) = (  -0.1924501   0.3333333   0.0000000), wk =   0.1111111
        k(    6) = (   0.0962250  -0.1666667   0.0000000), wk =   0.0000000
        k(    7) = (   0.2886751  -0.5000000   0.0000000), wk =   0.0555556
        k(    8) = (   0.5773503  -1.0000000   0.0000000), wk =   0.0000000
        k(    9) = (   0.0000000   0.3333333   0.0000000), wk =   0.2222222
        k(   10) = (   0.2886751  -0.1666667   0.0000000), wk =   0.0000000
        k(   11) = (  -0.0962250   0.5000000   0.0000000), wk =   0.2222222
        k(   12) = (   0.1924501   0.0000000   0.0000000), wk =   0.0000000
        k(   13) = (   0.0000000   0.6666667   0.0000000), wk =   0.1111111
        k(   14) = (   0.2886751   0.1666667   0.0000000), wk =   0.0000000
        k(   15) = (   0.1924501  -0.0000000   0.0000000), wk =   0.2222222
        k(   16) = (   0.4811252  -0.5000000   0.0000000), wk =   0.0000000
        k(   17) = (   0.3849002  -0.0000000   0.0000000), wk =   0.2222222
        k(   18) = (   0.6735753  -0.5000000   0.0000000), wk =   0.0000000
        k(   19) = (  -0.5773503  -0.0000000   0.0000000), wk =   0.1111111
        k(   20) = (  -0.2886751  -0.5000000   0.0000000), wk =   0.0000000
        k(   21) = (   0.2886751   0.1666667   0.0000000), wk =   0.1111111
        k(   22) = (   0.5773503  -0.3333333   0.0000000), wk =   0.0000000
        k(   23) = (   0.4811252  -0.1666667   0.0000000), wk =   0.2222222
        k(   24) = (   0.7698004  -0.6666667   0.0000000), wk =   0.0000000
        k(   25) = (   0.4811252   0.1666667   0.0000000), wk =   0.2222222
        k(   26) = (   0.7698004  -0.3333333   0.0000000), wk =   0.0000000

     Dense  grid:  1100103 G-vectors     FFT dimensions: (  81,  81, 375)

     Estimated max dynamical RAM per process >      59.25 MB

     Estimated total dynamical RAM >      22.22 GB

     The potential is recalculated from file :
     ./out/_ph0/Nb3Cl8.q_2/Nb3Cl8.save/charge-density

     Starting wfcs are    0 atomic +   58 random wfcs

     Band Structure Calculation
     Davidson diagonalization with overlap

     ethr =  1.05E-11,  avg # of iterations = 38.2

     total cpu time spent up to now is      110.9 secs

     End of band structure calculation

          k = 0.0000 0.0000 0.0000 (137531 PWs)   bands (ev):

   -58.1002 -57.9985 -57.9985 -34.5685 -34.3289 -34.3289 -34.3121 -34.1756
   -34.1756 -33.9277 -33.7734 -33.7734 -19.6599 -19.0643 -18.5697 -18.4244
[...]
      thresh= 1.000E-02 alpha_mix =  0.700 |ddv_scf|^2 =  1.003E-08

      iter #   2 total cpu time : 27792.7 secs   av.it.:  19.7
      thresh= 1.002E-05 alpha_mix =  0.700 |ddv_scf|^2 =  2.277E-07

      iter #   3 total cpu time : 27829.8 secs   av.it.:  16.4
      thresh= 4.772E-05 alpha_mix =  0.700 |ddv_scf|^2 =  3.957E-09

      iter #   4 total cpu time : 27874.5 secs   av.it.:  17.4
      thresh= 6.290E-06 alpha_mix =  0.700 |ddv_scf|^2 =  1.178E-10

      iter #   5 total cpu time : 27923.4 secs   av.it.:  17.7
      thresh= 1.085E-06 alpha_mix =  0.700 |ddv_scf|^2 =  4.631E-12

      iter #   6 total cpu time : 27951.2 secs   av.it.:  17.8
      thresh= 2.152E-07 alpha_mix =  0.700 |ddv_scf|^2 =  7.415E-13

      iter #   7 total cpu time : 27976.1 secs   av.it.:  18.3
      thresh= 8.611E-08 alpha_mix =  0.700 |ddv_scf|^2 =  1.182E-13

      iter #   8 total cpu time : 28005.0 secs   av.it.:  18.5
      thresh= 3.438E-08 alpha_mix =  0.700 |ddv_scf|^2 =  3.239E-15

      iter #   9 total cpu time : 28030.2 secs   av.it.:  18.4
      thresh= 5.691E-09 alpha_mix =  0.700 |ddv_scf|^2 =  1.307E-15

      iter #  10 total cpu time : 28051.2 secs   av.it.:  17.8
      thresh= 3.615E-09 alpha_mix =  0.700 |ddv_scf|^2 =  2.856E-16

      iter #  11 total cpu time : 28074.2 secs   av.it.:  18.7
      thresh= 1.690E-09 alpha_mix =  0.700 |ddv_scf|^2 =  3.946E-16

      iter #  12 total cpu time : 28143.7 secs   av.it.:  16.5
      thresh= 1.986E-09 alpha_mix =  0.700 |ddv_scf|^2 =  6.659E-19

     End of self-consistent calculation

     Convergence has been achieved 


     Representation #  29 mode #  29

     Self-consistent Calculation

      iter #   1 total cpu time : 28418.0 secs   av.it.:   7.0
      thresh= 1.000E-02 alpha_mix =  0.700 |ddv_scf|^2 =  6.221E-08

      iter #   2 total cpu time : 28496.0 secs   av.it.:  19.5
      thresh= 2.494E-05 alpha_mix =  0.700 |ddv_scf|^2 =  1.702E-06

      iter #   3 total cpu time : 28534.6 secs   av.it.:  16.3
      thresh= 1.305E-04 alpha_mix =  0.700 |ddv_scf|^2 =  2.369E-08

      iter #   4 total cpu time : 28584.3 secs   av.it.:  17.1
      thresh= 1.539E-05 alpha_mix =  0.700 |ddv_scf|^2 =  8.801E-11

      iter #   5 total cpu time : 28626.0 secs   av.it.:  18.5
      thresh= 9.381E-07 alpha_mix =  0.700 |ddv_scf|^2 =  6.062E-12

      iter #   6 total cpu time : 28651.7 secs   av.it.:  17.7
      thresh= 2.462E-07 alpha_mix =  0.700 |ddv_scf|^2 =  9.522E-13

      iter #   7 total cpu time : 28682.3 secs   av.it.:  18.5
      thresh= 9.758E-08 alpha_mix =  0.700 |ddv_scf|^2 =  5.281E-13

      iter #   8 total cpu time : 28706.0 secs   av.it.:  17.8
      thresh= 7.267E-08 alpha_mix =  0.700 |ddv_scf|^2 =  8.136E-15

      iter #   9 total cpu time : 28733.0 secs   av.it.:  17.7
      thresh= 9.020E-09 alpha_mix =  0.700 |ddv_scf|^2 =  6.970E-16

      iter #  10 total cpu time : 28757.9 secs   av.it.:  19.1
      thresh= 2.640E-09 alpha_mix =  0.700 |ddv_scf|^2 =  1.266E-15

      iter #  11 total cpu time : 28794.8 secs   av.it.:  16.8
      thresh= 3.559E-09 alpha_mix =  0.700 |ddv_scf|^2 =  1.750E-17

     End of self-consistent calculation

     Convergence has been achieved 


     Representation #  30 mode #  30

     Self-consistent Calculation

      iter #   1 total cpu time : 28913.2 secs   av.it.:   6.8
      thresh= 1.000E-02 alpha_mix =  0.700 |ddv_scf|^2 =  4.928E-08

      iter #   2 total cpu time : 28938.5 secs   av.it.:  19.5
      thresh= 2.220E-05 alpha_mix =  0.700 |ddv_scf|^2 =  1.220E-06

      iter #   3 total cpu time : 28990.3 secs   av.it.:  16.3
      thresh= 1.105E-04 alpha_mix =  0.700 |ddv_scf|^2 =  2.821E-08

      iter #   4 total cpu time : 29031.3 secs   av.it.:  17.0
      thresh= 1.680E-05 alpha_mix =  0.700 |ddv_scf|^2 =  7.544E-11

      iter #   5 total cpu time : 29136.4 secs   av.it.:  18.2
      thresh= 8.686E-07 alpha_mix =  0.700 |ddv_scf|^2 =  5.359E-12

      iter #   6 total cpu time : 29158.7 secs   av.it.:  18.2
      thresh= 2.315E-07 alpha_mix =  0.700 |ddv_scf|^2 =  9.680E-13

      iter #   7 total cpu time : 29198.1 secs   av.it.:  18.5
      thresh= 9.839E-08 alpha_mix =  0.700 |ddv_scf|^2 =  3.003E-13

      iter #   8 total cpu time : 29223.7 secs   av.it.:  18.3
      thresh= 5.480E-08 alpha_mix =  0.700 |ddv_scf|^2 =  1.370E-14

      iter #   9 total cpu time : 29248.8 secs   av.it.:  17.8
      thresh= 1.170E-08 alpha_mix =  0.700 |ddv_scf|^2 =  2.393E-16

      iter #  10 total cpu time : 29271.9 secs   av.it.:  19.4
      thresh= 1.547E-09 alpha_mix =  0.700 |ddv_scf|^2 =  6.549E-16

      iter #  11 total cpu time : 29311.1 secs   av.it.:  16.8
      thresh= 2.559E-09 alpha_mix =  0.700 |ddv_scf|^2 =  5.887E-18

     End of self-consistent calculation

     Convergence has been achieved 


     Representation #  31 mode #  31

     Self-consistent Calculation

      iter #   1 total cpu time : 29472.0 secs   av.it.:   8.0
      thresh= 1.000E-02 alpha_mix =  0.700 |ddv_scf|^2 =  5.228E-08

      iter #   2 total cpu time : 29518.8 secs   av.it.:  19.8
      thresh= 2.286E-05 alpha_mix =  0.700 |ddv_scf|^2 =  1.301E-06

      iter #   3 total cpu time : 29573.8 secs   av.it.:  16.3
      thresh= 1.141E-04 alpha_mix =  0.700 |ddv_scf|^2 =  2.138E-08

      iter #   4 total cpu time : 29629.9 secs   av.it.:  17.3
      thresh= 1.462E-05 alpha_mix =  0.700 |ddv_scf|^2 =  2.691E-10

      iter #   5 total cpu time : 29671.8 secs   av.it.:  17.7
      thresh= 1.640E-06 alpha_mix =  0.700 |ddv_scf|^2 =  6.454E-12

      iter #   6 total cpu time : 29698.2 secs   av.it.:  18.3
      thresh= 2.540E-07 alpha_mix =  0.700 |ddv_scf|^2 =  3.740E-13

      iter #   7 total cpu time : 29730.7 secs   av.it.:  19.0
      thresh= 6.115E-08 alpha_mix =  0.700 |ddv_scf|^2 =  1.033E-13

      iter #   8 total cpu time : 29752.2 secs   av.it.:  18.5
      thresh= 3.214E-08 alpha_mix =  0.700 |ddv_scf|^2 =  8.203E-15

      iter #   9 total cpu time : 29781.4 secs   av.it.:  18.5
      thresh= 9.057E-09 alpha_mix =  0.700 |ddv_scf|^2 =  4.528E-16

      iter #  10 total cpu time : 29805.9 secs   av.it.:  18.2
      thresh= 2.128E-09 alpha_mix =  0.700 |ddv_scf|^2 =  6.305E-17

     End of self-consistent calculation

     Convergence has been achieved 


     Representation #  32 mode #  32

     Self-consistent Calculation

      iter #   1 total cpu time : 29917.5 secs   av.it.:   6.8
      thresh= 1.000E-02 alpha_mix =  0.700 |ddv_scf|^2 =  4.626E-08

      iter #   2 total cpu time : 29979.8 secs   av.it.:  19.5
      thresh= 2.151E-05 alpha_mix =  0.700 |ddv_scf|^2 =  1.156E-06

      iter #   3 total cpu time : 30022.4 secs   av.it.:  16.3
      thresh= 1.075E-04 alpha_mix =  0.700 |ddv_scf|^2 =  2.447E-08

      iter #   4 total cpu time : 30078.8 secs   av.it.:  17.0
      thresh= 1.564E-05 alpha_mix =  0.700 |ddv_scf|^2 =  6.844E-11

      iter #   5 total cpu time : 30125.7 secs   av.it.:  18.3
      thresh= 8.273E-07 alpha_mix =  0.700 |ddv_scf|^2 =  4.040E-12

      iter #   6 total cpu time : 30153.8 secs   av.it.:  18.3
      thresh= 2.010E-07 alpha_mix =  0.700 |ddv_scf|^2 =  5.549E-13

      iter #   7 total cpu time : 30175.9 secs   av.it.:  18.6
      thresh= 7.449E-08 alpha_mix =  0.700 |ddv_scf|^2 =  2.409E-13

      iter #   8 total cpu time : 30198.1 secs   av.it.:  18.2
      thresh= 4.908E-08 alpha_mix =  0.700 |ddv_scf|^2 =  1.110E-14

      iter #   9 total cpu time : 30218.5 secs   av.it.:  17.8
      thresh= 1.054E-08 alpha_mix =  0.700 |ddv_scf|^2 =  4.401E-16

      iter #  10 total cpu time : 30246.6 secs   av.it.:  18.6
      thresh= 2.098E-09 alpha_mix =  0.700 |ddv_scf|^2 =  5.230E-16

      iter #  11 total cpu time : 30265.5 secs   av.it.:  17.2
      thresh= 2.287E-09 alpha_mix =  0.700 |ddv_scf|^2 =  5.038E-18

     End of self-consistent calculation

     Convergence has been achieved 


     Representation #  33 mode #  33

     Self-consistent Calculation

      iter #   1 total cpu time : 30483.9 secs   av.it.:   6.5
      thresh= 1.000E-02 alpha_mix =  0.700 |ddv_scf|^2 =  7.985E-09

      iter #   2 total cpu time : 30546.5 secs   av.it.:  19.7
      thresh= 8.936E-06 alpha_mix =  0.700 |ddv_scf|^2 =  1.249E-07

      iter #   3 total cpu time : 30581.6 secs   av.it.:  16.4
      thresh= 3.534E-05 alpha_mix =  0.700 |ddv_scf|^2 =  7.916E-09

      iter #   4 total cpu time : 30614.1 secs   av.it.:  16.8
      thresh= 8.897E-06 alpha_mix =  0.700 |ddv_scf|^2 =  2.912E-10

      iter #   5 total cpu time : 30678.3 secs   av.it.:  17.4
      thresh= 1.707E-06 alpha_mix =  0.700 |ddv_scf|^2 =  2.975E-12

      iter #   6 total cpu time : 30710.8 secs   av.it.:  18.2
      thresh= 1.725E-07 alpha_mix =  0.700 |ddv_scf|^2 =  1.362E-13

      iter #   7 total cpu time : 30735.6 secs   av.it.:  18.3
      thresh= 3.690E-08 alpha_mix =  0.700 |ddv_scf|^2 =  1.437E-14

      iter #   8 total cpu time : 30759.8 secs   av.it.:  18.3
      thresh= 1.199E-08 alpha_mix =  0.700 |ddv_scf|^2 =  1.892E-15

      iter #   9 total cpu time : 30785.0 secs   av.it.:  17.9
      thresh= 4.350E-09 alpha_mix =  0.700 |ddv_scf|^2 =  1.304E-16

      iter #  10 total cpu time : 30807.8 secs   av.it.:  19.2
      thresh= 1.142E-09 alpha_mix =  0.700 |ddv_scf|^2 =  1.295E-16

      iter #  11 total cpu time : 30835.4 secs   av.it.:  18.5
      thresh= 1.138E-09 alpha_mix =  0.700 |ddv_scf|^2 =  5.960E-16

      iter #  12 total cpu time : 30858.6 secs   av.it.:  16.0
      thresh= 2.441E-09 alpha_mix =  0.700 |ddv_scf|^2 =  8.932E-19

     End of self-consistent calculation

     Convergence has been achieved 

     Number of q in the star =    3
     List of q in the star:
          1   0.288675135  -0.500000000   0.000000000
          2  -0.577350269  -0.000000000   0.000000000
          3   0.288675135   0.500000000   0.000000000

     Diagonalizing the dynamical matrix

     q = (    0.288675135  -0.500000000   0.000000000 ) 

 **************************************************************************
     freq (    1) =       1.569580 [THz] =      52.355552 [cm-1]
     freq (    2) =       1.980205 [THz] =      66.052518 [cm-1]
     freq (    3) =       2.107485 [THz] =      70.298126 [cm-1]
     freq (    4) =       2.614775 [THz] =      87.219496 [cm-1]
     freq (    5) =       2.997718 [THz] =      99.993102 [cm-1]
     freq (    6) =       3.336837 [THz] =     111.304912 [cm-1]
     freq (    7) =       3.871799 [THz] =     129.149320 [cm-1]
     freq (    8) =       3.891452 [THz] =     129.804873 [cm-1]
     freq (    9) =       4.559125 [THz] =     152.076040 [cm-1]
     freq (   10) =       4.569625 [THz] =     152.426273 [cm-1]
     freq (   11) =       4.741208 [THz] =     158.149675 [cm-1]
     freq (   12) =       4.972992 [THz] =     165.881167 [cm-1]
     freq (   13) =       5.235438 [THz] =     174.635425 [cm-1]
     freq (   14) =       5.564671 [THz] =     185.617434 [cm-1]
     freq (   15) =       6.362518 [THz] =     212.230771 [cm-1]
     freq (   16) =       6.407265 [THz] =     213.723348 [cm-1]
     freq (   17) =       6.647870 [THz] =     221.749088 [cm-1]
     freq (   18) =       6.672372 [THz] =     222.566376 [cm-1]
     freq (   19) =       6.747093 [THz] =     225.058810 [cm-1]
     freq (   20) =       7.121381 [THz] =     237.543709 [cm-1]
     freq (   21) =       7.239590 [THz] =     241.486720 [cm-1]
     freq (   22) =       7.540305 [THz] =     251.517501 [cm-1]
     freq (   23) =       7.677492 [THz] =     256.093563 [cm-1]
     freq (   24) =       7.808602 [THz] =     260.466917 [cm-1]
     freq (   25) =       7.963071 [THz] =     265.619466 [cm-1]
     freq (   26) =       8.304321 [THz] =     277.002330 [cm-1]
     freq (   27) =       8.358739 [THz] =     278.817531 [cm-1]
     freq (   28) =       8.973719 [THz] =     299.331046 [cm-1]
     freq (   29) =       9.409478 [THz] =     313.866412 [cm-1]
     freq (   30) =       9.824611 [THz] =     327.713763 [cm-1]
     freq (   31) =      10.052705 [THz] =     335.322139 [cm-1]
     freq (   32) =      10.581260 [THz] =     352.952846 [cm-1]
     freq (   33) =      10.961364 [THz] =     365.631734 [cm-1]
 **************************************************************************

     Mode symmetry, C_s (m)     point group:

     freq (   1-   1) =         52.4  [cm-1]   --> A'                 
     freq (   2-   2) =         66.1  [cm-1]   --> A''                
     freq (   3-   3) =         70.3  [cm-1]   --> A'                 
     freq (   4-   4) =         87.2  [cm-1]   --> A''                
     freq (   5-   5) =        100.0  [cm-1]   --> A''                
     freq (   6-   6) =        111.3  [cm-1]   --> A'                 
     freq (   7-   7) =        129.1  [cm-1]   --> A''                
     freq (   8-   8) =        129.8  [cm-1]   --> A'                 
     freq (   9-   9) =        152.1  [cm-1]   --> A''                
     freq (  10-  10) =        152.4  [cm-1]   --> A'                 
     freq (  11-  11) =        158.1  [cm-1]   --> A'                 
     freq (  12-  12) =        165.9  [cm-1]   --> A'                 
     freq (  13-  13) =        174.6  [cm-1]   --> A''                
     freq (  14-  14) =        185.6  [cm-1]   --> A'                 
     freq (  15-  15) =        212.2  [cm-1]   --> A'                 
     freq (  16-  16) =        213.7  [cm-1]   --> A''                
     freq (  17-  17) =        221.7  [cm-1]   --> A''                
     freq (  18-  18) =        222.6  [cm-1]   --> A'                 
     freq (  19-  19) =        225.1  [cm-1]   --> A'                 
     freq (  20-  20) =        237.5  [cm-1]   --> A''                
     freq (  21-  21) =        241.5  [cm-1]   --> A'                 
     freq (  22-  22) =        251.5  [cm-1]   --> A'                 
     freq (  23-  23) =        256.1  [cm-1]   --> A''                
     freq (  24-  24) =        260.5  [cm-1]   --> A'                 
     freq (  25-  25) =        265.6  [cm-1]   --> A''                
     freq (  26-  26) =        277.0  [cm-1]   --> A''                
     freq (  27-  27) =        278.8  [cm-1]   --> A'                 
     freq (  28-  28) =        299.3  [cm-1]   --> A''                
     freq (  29-  29) =        313.9  [cm-1]   --> A'                 
     freq (  30-  30) =        327.7  [cm-1]   --> A'                 
     freq (  31-  31) =        335.3  [cm-1]   --> A''                
     freq (  32-  32) =        353.0  [cm-1]   --> A'                 
     freq (  33-  33) =        365.6  [cm-1]   --> A'                 

     init_run     :      0.41s CPU      2.98s WALL (       1 calls)
     electrons    :     98.43s CPU    107.91s WALL (       1 calls)

     Called by init_run:
     wfcinit      :      0.00s CPU      1.79s WALL (       1 calls)
     potinit      :      0.06s CPU      0.81s WALL (       1 calls)
     hinit0       :      0.01s CPU      0.01s WALL (       1 calls)

     Called by electrons:
     c_bands      :     98.42s CPU    107.86s WALL (       1 calls)
     v_of_rho     :      0.08s CPU      0.10s WALL (       2 calls)

     Called by c_bands:
     init_us_2    :      7.88s CPU      8.68s WALL (    1450 calls)
     cegterg      :     17.61s CPU     17.96s WALL (       8 calls)

     Called by *egterg:
     cdiaghg      :      1.37s CPU      1.39s WALL (     154 calls)
     h_psi        :   3471.82s CPU   3517.13s WALL (   40904 calls)
     g_psi        :      0.06s CPU      0.06s WALL (     150 calls)

     Called by h_psi:
     h_psi:calbec :    211.95s CPU    215.07s WALL (   40904 calls)
     vloc_psi     :   3027.98s CPU   3065.92s WALL (   40904 calls)
     add_vuspsi   :    177.47s CPU    180.82s WALL (   40904 calls)

     General routines
     calbec       :    550.13s CPU    558.35s WALL (   82094 calls)
     fft          :     25.03s CPU     29.09s WALL (   10083 calls)
     ffts         :    293.65s CPU    297.01s WALL (    2970 calls)
     fftw         :   4164.30s CPU   4211.90s WALL ( 2319592 calls)
     davcio       :      1.70s CPU   3374.61s WALL (   13343 calls)

     Parallel routines

     PHONON       :  22539.03s CPU  31013.31s WALL

     INITIALIZATION: 
     phq_setup    :      0.21s CPU      0.32s WALL (       2 calls)
     phq_init     :      6.83s CPU      7.99s WALL (       2 calls)

     phq_init     :      6.83s CPU      7.99s WALL (       2 calls)
     init_vloc    :      0.01s CPU      0.01s WALL (       2 calls)
     init_us_1    :      0.00s CPU      0.00s WALL (       2 calls)
     init_us_2    :      7.88s CPU      8.68s WALL (    1450 calls)

     DYNAMICAL MATRIX:
     dynmat0      :      6.66s CPU      7.79s WALL (       2 calls)
     dynmat_us    :      5.06s CPU      5.12s WALL (       2 calls)
     d2ionq       :      0.20s CPU      0.20s WALL (       2 calls)
     phqscf       :  22398.95s CPU  30543.94s WALL (       2 calls)
     dynmatrix    :     14.43s CPU     18.79s WALL (       2 calls)

     phqscf       :  22398.95s CPU  30543.94s WALL (       2 calls)
     solve_linter :  22321.98s CPU  30274.61s WALL (      55 calls)
     sth_kernel   :   7103.70s CPU   8280.80s WALL (     738 calls)
     h_prec       :    438.48s CPU    442.25s WALL (    1242 calls)
     apply_dpot_b :    629.32s CPU    635.82s WALL (    1256 calls)
     ortho        :    107.15s CPU    108.38s WALL (    1355 calls)
     cgsolve      :   4495.83s CPU   4562.46s WALL (    1355 calls)
     incdrhoscf   :    691.71s CPU    698.67s WALL (    1355 calls)
                                        0.00s GPU  (    1355 calls)
     dv_of_drho   :     38.48s CPU     43.52s WALL (     851 calls)
     mix_pot      :   2199.54s CPU   5544.75s WALL (     738 calls)
     ef_shift     :      2.93s CPU      3.80s WALL (     234 calls)
     ef_shift_wfc :      0.01s CPU      4.46s WALL (      22 calls)
     localdos     :    168.22s CPU    169.85s WALL (      22 calls)
     drhodv       :     76.68s CPU    118.65s WALL (      55 calls)
     psymdvscf    :    302.91s CPU    334.64s WALL (     738 calls)

     dvqpsi_us    :    302.31s CPU    304.74s WALL (      99 calls)
                                        0.00s GPU  (      99 calls)
     dvqpsi_us_on :      2.06s CPU      2.13s WALL (      99 calls)

     add_vuspsi   :    177.47s CPU    180.82s WALL (   40904 calls)


      General routines
     calbec       :    550.13s CPU    558.35s WALL (   82094 calls)
     fft          :     25.03s CPU     29.09s WALL (   10083 calls)
     ffts         :    293.65s CPU    297.01s WALL (    2970 calls)
     fftw         :   4164.30s CPU   4211.90s WALL ( 2319592 calls)
     davcio       :      1.70s CPU   3374.61s WALL (   13343 calls)
     write_rec    :      2.55s CPU   3104.27s WALL (     793 calls)

      Additional routines
     ch_psi       :   4181.77s CPU   4241.00s WALL (   40742 calls)
     last         :    588.57s CPU    599.22s WALL (   40742 calls)
     Hesh         :     65.84s CPU     67.10s WALL (   40742 calls)
     ch_psi_all_k :    522.36s CPU    531.86s WALL (   40742 calls)
                                        0.00s GPU  (   40742 calls)
     ch_psi_calbe :    205.60s CPU    208.99s WALL (   40742 calls)
                                        0.00s GPU  (   40742 calls)
     h_psi_bgrp   :   3471.99s CPU   3517.22s WALL (   40904 calls)
     h_psi        :   3471.82s CPU   3517.13s WALL (   40904 calls)
     h_psi:pot    :   3417.93s CPU   3462.11s WALL (   40904 calls)
     h_psi:calbec :    211.95s CPU    215.07s WALL (   40904 calls)
     s_psi_bgrp   :     81.25s CPU     83.37s WALL (   82839 calls)


     PHONON       :  22539.03s CPU  31013.32s WALL


   This run was terminated on:  18: 9:55   8May2025            

=------------------------------------------------------------------------------=
   JOB DONE.
=------------------------------------------------------------------------------=
