
     Program PWSCF v.7.3.1 starts on  8May2025 at  9:29:59 

     This program is part of the open-source Quantum ESPRESSO suite
     for quantum simulation of materials; please cite
         "P. Giannozzi et al., J. Phys.:Condens. Matter 21 395502 (2009);
         "P. Giannozzi et al., J. Phys.:Condens. Matter 29 465901 (2017);
         "P. Giannozzi et al., J. Chem. Phys. 152 154105 (2020);
          URL http://www.quantum-espresso.org", 
     in publications or presentations arising from this work. More details at
     http://www.quantum-espresso.org/quote

     Parallel version (MPI & OpenMP), running on     384 processor cores
     Number of MPI processes:               384
     Threads/MPI process:                     1

     MPI processes distributed on     2 nodes
     337140 MiB available memory on the printing compute node when the environment starts

     Waiting for input...
     Reading input from standard input
Warning: card &CELL ignored
Warning: card / ignored
Warning: card &FCP ignored
Warning: card / ignored
Warning: card &RISM ignored
Warning: card / ignored

     Current dimensions of program PWSCF are:
     Max number of different atomic species (ntypx) = 10
     Max number of k-points (npk) =  40000
     Max angular momentum in pseudopotentials (lmaxx) =  4

     IMPORTANT: XC functional enforced from input :
     Exchange-correlation= PBE
                           (   1   4   3   4   0   0   0)
     Any further DFT definition will be discarded
     Please, verify this is what you really want

     Message from routine setup:
     using ibrav=0 with symmetry is DISCOURAGED, use correct ibrav instead

     K-points division:     npool     =      12
     R & G space division:  proc/nbgrp/npool/nimage =      32
     Subspace diagonalization in iterative solution of the eigenvalue problem:
     a serial algorithm will be used

     Message from routine divide_et_impera:
     suboptimal parallelization: some nodes have no k-points

     Parallelization info
     --------------------
     sticks:   dense  smooth     PW     G-vecs:    dense   smooth      PW
     Min         140     140     37                34374    34374    4725
     Max         141     141     38                34388    34388    4743
     Sum        4483    4483   1189              1100103  1100103  151427

     Using Slab Decomposition



     bravais-lattice index     =            0
     lattice parameter (alat)  =      12.7288  a.u.
     unit-cell volume          =    8140.0419 (a.u.)^3
     number of atoms/cell      =           11
     number of atomic types    =            2
     number of electrons       =        95.00
     number of Kohn-Sham states=           58
     kinetic-energy cutoff     =     100.0000  Ry
     charge density cutoff     =     400.0000  Ry
     scf convergence threshold =      1.0E-12
     mixing beta               =       0.7000
     number of iterations used =            8  plain     mixing
     Exchange-correlation= PBE
                           (   1   4   3   4   0   0   0)

     celldm(1)=  12.728776  celldm(2)=   0.000000  celldm(3)=   0.000000
     celldm(4)=   0.000000  celldm(5)=   0.000000  celldm(6)=   0.000000

     crystal axes: (cart. coord. in units of alat)
               a(1) = (   0.866025   0.500000   0.000000 )  
               a(2) = (  -0.866025   0.500000   0.000000 )  
               a(3) = (   0.000000   0.000000   4.557598 )  

     reciprocal axes: (cart. coord. in units 2 pi/alat)
               b(1) = (  0.577350  1.000000 -0.000000 )  
               b(2) = ( -0.577350  1.000000  0.000000 )  
               b(3) = (  0.000000 -0.000000  0.219414 )  


     PseudoPot. # 1 for Nb read from file:
     /scratch-shared/mroesner/Nb3X8_cDFPT/pp/Nb_ONCV_PBE-1.2.upf
     MD5 check sum: 2c750ac0b6910ff4cf0ab5f6c4124a64
     Pseudo is Norm-conserving, Zval = 13.0
     Generated using ONCVPSP code by D. R. Hamann
     Using radial grid of  602 points,  6 beta functions with: 
                l(1) =   0
                l(2) =   0
                l(3) =   1
                l(4) =   1
                l(5) =   2
                l(6) =   2

     PseudoPot. # 2 for Cl read from file:
     /scratch-shared/mroesner/Nb3X8_cDFPT/pp/Cl_ONCV_PBE-1.2.upf
     MD5 check sum: 0f993535b366f580ecbcdacce103c843
     Pseudo is Norm-conserving, Zval =  7.0
     Generated using ONCVPSP code by D. R. Hamann
     Using radial grid of  602 points,  4 beta functions with: 
                l(1) =   0
                l(2) =   0
                l(3) =   1
                l(4) =   1

     atomic species   valence    mass     pseudopotential
     Nb               13.00    92.90637     Nb( 1.00)
     Cl                7.00    35.45270     Cl( 1.00)

      6 Sym. Ops. (no inversion) found


                                    s                        frac. trans.

      isym =  1     identity                                     

 cryst.   s( 1) = (     1          0          0      )
                  (     0          1          0      )
                  (     0          0          1      )

 cart.    s( 1) = (  1.0000000  0.0000000  0.0000000 )
                  ( -0.0000000  1.0000000  0.0000000 )
                  (  0.0000000  0.0000000  1.0000000 )


      isym =  2     120 deg rotation - cryst. axis [0,0,1]       

 cryst.   s( 2) = (     0          1          0      )
                  (    -1         -1          0      )
                  (     0          0          1      )

 cart.    s( 2) = ( -0.5000000 -0.8660254  0.0000000 )
                  (  0.8660254 -0.5000000  0.0000000 )
                  (  0.0000000  0.0000000  1.0000000 )


      isym =  3     120 deg rotation - cryst. axis [0,0,-1]      

 cryst.   s( 3) = (    -1         -1          0      )
                  (     1          0          0      )
                  (     0          0          1      )

 cart.    s( 3) = ( -0.5000000  0.8660254  0.0000000 )
                  ( -0.8660254 -0.5000000  0.0000000 )
                  (  0.0000000  0.0000000  1.0000000 )


      isym =  4     inv. 180 deg rotation - cart. axis [0,1,0]   

 cryst.   s( 4) = (     0         -1          0      )
                  (    -1          0          0      )
                  (     0          0          1      )

 cart.    s( 4) = (  1.0000000 -0.0000000  0.0000000 )
                  ( -0.0000000 -1.0000000  0.0000000 )
                  (  0.0000000  0.0000000  1.0000000 )


      isym =  5     inv. 180 deg rotation - cryst. axis [1,-1,0] 

 cryst.   s( 5) = (     1          1          0      )
                  (     0         -1          0      )
                  (     0          0          1      )

 cart.    s( 5) = ( -0.5000000  0.8660254  0.0000000 )
                  (  0.8660254  0.5000000  0.0000000 )
                  (  0.0000000  0.0000000  1.0000000 )


      isym =  6     inv. 180 deg rotation - cryst. axis [2,1,0]  

 cryst.   s( 6) = (    -1          0          0      )
                  (     1          1          0      )
                  (     0          0          1      )

 cart.    s( 6) = ( -0.5000000 -0.8660254  0.0000000 )
                  ( -0.8660254  0.5000000  0.0000000 )
                  (  0.0000000  0.0000000  1.0000000 )


   Cartesian axes

     site n.     atom                  positions (alat units)
         1        Nb     tau(   1) = (  -0.2402445   0.0000000   0.4640943  )
         2        Nb     tau(   2) = (   0.1201223  -0.2080579   0.4640943  )
         3        Nb     tau(   3) = (   0.1201223   0.2080579   0.4640943  )
         4        Cl     tau(   4) = (   0.2850443  -0.0000000   0.2176560  )
         5        Cl     tau(   5) = (  -0.1425221   0.2468556   0.2176560  )
         6        Cl     tau(   6) = (  -0.1425221  -0.2468556   0.2176560  )
         7        Cl     tau(   7) = (  -0.5773503  -0.0000000   0.2609354  )
         8        Cl     tau(   8) = (   0.8630545  -0.0000000   0.6655026  )
         9        Cl     tau(   9) = (   0.4344982   0.2474271   0.6655026  )
        10        Cl     tau(  10) = (   0.4344982  -0.2474271   0.6655026  )
        11        Cl     tau(  11) = (   0.0000000   0.0000000   0.7383673  )

     --------------------------------------------
     DFT-D3 Dispersion Correction (no 3-body):
     --------------------------------------------
       Reference C6 values for interpolation: 

         atom   Coordination number   C6
         Cl         0.000           184.69
         Cl         0.997           180.80
         Nb         0.000          2950.50
         Nb         1.954          1161.16
         Nb         2.922           857.79

       Values used:

         atom   Coordination number  R0_AB[au]  C6      C8
         Nb         8.244            3.647    857.79 111659.18
         Nb         8.244            3.647    857.79 111659.18
         Nb         8.244            3.647    857.79 111659.18
         Cl         2.244            2.933    180.80   7543.50
         Cl         2.244            2.933    180.80   7543.50
         Cl         2.244            2.933    180.80   7543.50
         Cl         3.076            2.933    180.80   7543.49
         Cl         2.251            2.933    180.80   7543.50
         Cl         2.251            2.933    180.80   7543.50
         Cl         2.251            2.933    180.80   7543.50
         Cl         3.133            2.933    180.80   7543.49

         Molecular C6 ( Ry / a.u.^6 ) =     37724.98


   Crystallographic axes

     site n.     atom                  positions (cryst. coord.)
         1        Nb     tau(   1) = ( -0.1387052  0.1387052  0.1018287  )
         2        Nb     tau(   2) = ( -0.1387052 -0.2774105  0.1018287  )
         3        Nb     tau(   3) = (  0.2774105  0.1387052  0.1018287  )
         4        Cl     tau(   4) = (  0.1645704 -0.1645704  0.0477567  )
         5        Cl     tau(   5) = (  0.1645704  0.3291408  0.0477567  )
         6        Cl     tau(   6) = ( -0.3291408 -0.1645704  0.0477567  )
         7        Cl     tau(   7) = ( -0.3333333  0.3333333  0.0572528  )
         8        Cl     tau(   8) = (  0.4982847 -0.4982847  0.1460205  )
         9        Cl     tau(   9) = (  0.4982847 -0.0034305  0.1460205  )
        10        Cl     tau(  10) = (  0.0034305 -0.4982847  0.1460205  )
        11        Cl     tau(  11) = (  0.0000000  0.0000000  0.1620080  )

     number of k points=     7  Gaussian smearing, width (Ry)=  0.0037
                       cart. coord. in units 2pi/alat
        k(    1) = (   0.0000000   0.0000000   0.0000000), wk =   0.0555556
        k(    2) = (  -0.0962250   0.1666667   0.0000000), wk =   0.3333333
        k(    3) = (  -0.1924501   0.3333333   0.0000000), wk =   0.3333333
        k(    4) = (   0.2886751  -0.5000000   0.0000000), wk =   0.1666667
        k(    5) = (  -0.0000000   0.3333333   0.0000000), wk =   0.3333333
        k(    6) = (  -0.0962250   0.5000000   0.0000000), wk =   0.6666667
        k(    7) = (  -0.0000000   0.6666667   0.0000000), wk =   0.1111111

                       cryst. coord.
        k(    1) = (   0.0000000   0.0000000   0.0000000), wk =   0.0555556
        k(    2) = (  -0.0000000   0.1666667   0.0000000), wk =   0.3333333
        k(    3) = (  -0.0000000   0.3333333   0.0000000), wk =   0.3333333
        k(    4) = (   0.0000000  -0.5000000   0.0000000), wk =   0.1666667
        k(    5) = (   0.1666667   0.1666667   0.0000000), wk =   0.3333333
        k(    6) = (   0.1666667   0.3333333   0.0000000), wk =   0.6666667
        k(    7) = (   0.3333333   0.3333333   0.0000000), wk =   0.1111111

     Dense  grid:  1100103 G-vectors     FFT dimensions: (  81,  81, 375)

     Dynamical RAM for                 wfc:       3.80 MB

     Dynamical RAM for     wfc (w. buffer):       3.80 MB

     Dynamical RAM for           str. fact:       1.05 MB

     Dynamical RAM for           local pot:       0.00 MB

     Dynamical RAM for          nlocal pot:       7.73 MB

     Dynamical RAM for                qrad:       3.21 MB

     Dynamical RAM for          rho,v,vnew:       3.38 MB

     Dynamical RAM for               rhoin:       1.13 MB

     Dynamical RAM for            rho*nmix:       8.39 MB

     Dynamical RAM for           G-vectors:       2.23 MB

     Dynamical RAM for          h,s,v(r/c):       0.62 MB

     Dynamical RAM for          <psi|beta>:       0.10 MB

     Dynamical RAM for                 psi:       7.60 MB

     Dynamical RAM for                hpsi:       7.60 MB

     Dynamical RAM for      wfcinit/wfcrot:       7.68 MB

     Estimated static dynamical RAM per process >      27.10 MB

     Estimated max dynamical RAM per process >      51.42 MB

     Estimated total dynamical RAM >      16.40 GB

     Initial potential from superposition of free atoms

     starting charge      94.6161, renormalised to      95.0000

     negative rho (up, down):  1.459E-03 0.000E+00
     Starting wfcs are random

     total cpu time spent up to now is        1.8 secs

     per-process dynamical memory:   172.0 Mb

     Self-consistent Calculation

     iteration #  1     ecut=   100.00 Ry     beta= 0.70
     Davidson diagonalization with overlap

---- Real-time Memory Report at c_bands before calling an iterative solver
           228 MiB given to the printing process from OS
           168 MiB allocation reported by mallinfo(arena+hblkhd)
        327106 MiB available memory on the node where the printing process lives
------------------
     ethr =  1.00E-02,  avg # of iterations = 16.3

     Threshold (ethr) on eigenvalues was too large:
     Diagonalizing with lowered threshold

     Davidson diagonalization with overlap

---- Real-time Memory Report at c_bands before calling an iterative solver
           271 MiB given to the printing process from OS
           174 MiB allocation reported by mallinfo(arena+hblkhd)
        325690 MiB available memory on the node where the printing process lives
------------------
     ethr =  3.40E-04,  avg # of iterations =  9.6

     negative rho (up, down):  2.863E-04 0.000E+00

     total cpu time spent up to now is        4.7 secs

     total energy              =    -584.98144064 Ry
     estimated scf accuracy    <       0.31109684 Ry

     iteration #  2     ecut=   100.00 Ry     beta= 0.70
     Davidson diagonalization with overlap

---- Real-time Memory Report at c_bands before calling an iterative solver
           271 MiB given to the printing process from OS
           174 MiB allocation reported by mallinfo(arena+hblkhd)
        325668 MiB available memory on the node where the printing process lives
------------------
     ethr =  3.27E-04,  avg # of iterations =  3.0

     negative rho (up, down):  1.397E-04 0.000E+00

     total cpu time spent up to now is        5.4 secs

     total energy              =    -585.05352218 Ry
     estimated scf accuracy    <       0.11806397 Ry

     iteration #  3     ecut=   100.00 Ry     beta= 0.70
     Davidson diagonalization with overlap

---- Real-time Memory Report at c_bands before calling an iterative solver
           281 MiB given to the printing process from OS
           182 MiB allocation reported by mallinfo(arena+hblkhd)
        325402 MiB available memory on the node where the printing process lives
------------------
     ethr =  1.24E-04,  avg # of iterations =  2.9

     negative rho (up, down):  7.642E-05 0.000E+00

     total cpu time spent up to now is        6.1 secs

     total energy              =    -585.07514325 Ry
     estimated scf accuracy    <       0.02587695 Ry

     iteration #  4     ecut=   100.00 Ry     beta= 0.70
     Davidson diagonalization with overlap

---- Real-time Memory Report at c_bands before calling an iterative solver
           284 MiB given to the printing process from OS
           183 MiB allocation reported by mallinfo(arena+hblkhd)
        325373 MiB available memory on the node where the printing process lives
------------------
     ethr =  2.72E-05,  avg # of iterations =  5.6

     negative rho (up, down):  2.177E-05 0.000E+00

     total cpu time spent up to now is        6.9 secs

     total energy              =    -585.08123766 Ry
     estimated scf accuracy    <       0.00899798 Ry

     iteration #  5     ecut=   100.00 Ry     beta= 0.70
     Davidson diagonalization with overlap

---- Real-time Memory Report at c_bands before calling an iterative solver
           284 MiB given to the printing process from OS
           184 MiB allocation reported by mallinfo(arena+hblkhd)
        325339 MiB available memory on the node where the printing process lives
------------------
     ethr =  9.47E-06,  avg # of iterations =  4.7

     negative rho (up, down):  5.055E-06 0.000E+00

     total cpu time spent up to now is        7.6 secs

     total energy              =    -585.08271849 Ry
     estimated scf accuracy    <       0.00179351 Ry

     iteration #  6     ecut=   100.00 Ry     beta= 0.70
     Davidson diagonalization with overlap

---- Real-time Memory Report at c_bands before calling an iterative solver
           286 MiB given to the printing process from OS
           185 MiB allocation reported by mallinfo(arena+hblkhd)
        325307 MiB available memory on the node where the printing process lives
------------------
     ethr =  1.89E-06,  avg # of iterations =  6.4

     negative rho (up, down):  1.097E-06 0.000E+00

     total cpu time spent up to now is        8.7 secs

     total energy              =    -585.08307608 Ry
     estimated scf accuracy    <       0.00048242 Ry

     iteration #  7     ecut=   100.00 Ry     beta= 0.70
     Davidson diagonalization with overlap

---- Real-time Memory Report at c_bands before calling an iterative solver
           287 MiB given to the printing process from OS
           187 MiB allocation reported by mallinfo(arena+hblkhd)
        325260 MiB available memory on the node where the printing process lives
------------------
     ethr =  5.08E-07,  avg # of iterations =  4.6

     negative rho (up, down):  7.045E-08 0.000E+00

     total cpu time spent up to now is        9.4 secs

     total energy              =    -585.08316505 Ry
     estimated scf accuracy    <       0.00001125 Ry

     iteration #  8     ecut=   100.00 Ry     beta= 0.70
     Davidson diagonalization with overlap

---- Real-time Memory Report at c_bands before calling an iterative solver
           287 MiB given to the printing process from OS
           188 MiB allocation reported by mallinfo(arena+hblkhd)
        325231 MiB available memory on the node where the printing process lives
------------------
     ethr =  1.18E-08,  avg # of iterations =  9.0

     total cpu time spent up to now is       10.3 secs

     total energy              =    -585.08316949 Ry
     estimated scf accuracy    <       0.00000229 Ry

     iteration #  9     ecut=   100.00 Ry     beta= 0.70
     Davidson diagonalization with overlap

---- Real-time Memory Report at c_bands before calling an iterative solver
           289 MiB given to the printing process from OS
           189 MiB allocation reported by mallinfo(arena+hblkhd)
        325214 MiB available memory on the node where the printing process lives
------------------
     ethr =  2.41E-09,  avg # of iterations =  3.7

     negative rho (up, down):  1.784E-08 0.000E+00

     total cpu time spent up to now is       11.1 secs

     total energy              =    -585.08316994 Ry
     estimated scf accuracy    <       0.00000032 Ry

     iteration # 10     ecut=   100.00 Ry     beta= 0.70
     Davidson diagonalization with overlap

---- Real-time Memory Report at c_bands before calling an iterative solver
           290 MiB given to the printing process from OS
           190 MiB allocation reported by mallinfo(arena+hblkhd)
        325187 MiB available memory on the node where the printing process lives
------------------
     ethr =  3.38E-10,  avg # of iterations =  6.6

     total cpu time spent up to now is       11.8 secs

     total energy              =    -585.08317000 Ry
     estimated scf accuracy    <       0.00000001 Ry

     iteration # 11     ecut=   100.00 Ry     beta= 0.70
     Davidson diagonalization with overlap

---- Real-time Memory Report at c_bands before calling an iterative solver
           292 MiB given to the printing process from OS
           191 MiB allocation reported by mallinfo(arena+hblkhd)
        325159 MiB available memory on the node where the printing process lives
------------------
     ethr =  1.56E-11,  avg # of iterations =  6.3

     total cpu time spent up to now is       12.9 secs

     total energy              =    -585.08317001 Ry
     estimated scf accuracy    <          4.7E-09 Ry

     iteration # 12     ecut=   100.00 Ry     beta= 0.70
     Davidson diagonalization with overlap

---- Real-time Memory Report at c_bands before calling an iterative solver
           292 MiB given to the printing process from OS
           191 MiB allocation reported by mallinfo(arena+hblkhd)
        325178 MiB available memory on the node where the printing process lives
------------------
     ethr =  4.99E-12,  avg # of iterations =  2.1

     total cpu time spent up to now is       13.5 secs

     total energy              =    -585.08317001 Ry
     estimated scf accuracy    <          6.5E-10 Ry

     iteration # 13     ecut=   100.00 Ry     beta= 0.70
     Davidson diagonalization with overlap

---- Real-time Memory Report at c_bands before calling an iterative solver
           292 MiB given to the printing process from OS
           191 MiB allocation reported by mallinfo(arena+hblkhd)
        325184 MiB available memory on the node where the printing process lives
------------------
     ethr =  6.85E-13,  avg # of iterations =  7.9

     total cpu time spent up to now is       14.3 secs

     total energy              =    -585.08317001 Ry
     estimated scf accuracy    <          2.0E-11 Ry

     iteration # 14     ecut=   100.00 Ry     beta= 0.70
     Davidson diagonalization with overlap

---- Real-time Memory Report at c_bands before calling an iterative solver
           292 MiB given to the printing process from OS
           191 MiB allocation reported by mallinfo(arena+hblkhd)
        325194 MiB available memory on the node where the printing process lives
------------------
     ethr =  1.00E-13,  avg # of iterations =  3.7

     total cpu time spent up to now is       14.9 secs

     total energy              =    -585.08317001 Ry
     estimated scf accuracy    <          7.6E-12 Ry

     iteration # 15     ecut=   100.00 Ry     beta= 0.70
     Davidson diagonalization with overlap

---- Real-time Memory Report at c_bands before calling an iterative solver
           292 MiB given to the printing process from OS
           191 MiB allocation reported by mallinfo(arena+hblkhd)
        325196 MiB available memory on the node where the printing process lives
------------------
     ethr =  1.00E-13,  avg # of iterations =  1.0

     total cpu time spent up to now is       15.4 secs

     total energy              =    -585.08317001 Ry
     estimated scf accuracy    <          3.8E-12 Ry

     iteration # 16     ecut=   100.00 Ry     beta= 0.70
     Davidson diagonalization with overlap

---- Real-time Memory Report at c_bands before calling an iterative solver
           292 MiB given to the printing process from OS
           191 MiB allocation reported by mallinfo(arena+hblkhd)
        325201 MiB available memory on the node where the printing process lives
------------------
     ethr =  1.00E-13,  avg # of iterations =  1.0

     total cpu time spent up to now is       15.8 secs

     End of self-consistent calculation

          k = 0.0000 0.0000 0.0000 (137531 PWs)   bands (ev):

   -58.1002 -57.9985 -57.9985 -34.5685 -34.3289 -34.3289 -34.3121 -34.1756
   -34.1756 -33.9277 -33.7734 -33.7734 -19.6599 -19.0643 -18.5697 -18.4244
   -18.4244 -18.3093 -17.9676 -17.9676  -9.1976  -9.1976  -8.8559  -8.6606
    -8.2271  -8.2271  -8.0724  -7.9128  -7.6178  -7.6178  -7.1720  -7.0082
    -7.0082  -6.5958  -6.5059  -6.5059  -6.2017  -6.2017  -6.1340  -6.0555
    -5.4361  -5.4361  -4.9469  -4.9469  -3.8535  -3.2879  -3.2879  -1.9650
    -1.1760  -1.1760  -0.1927  -0.1927  -0.1697   0.2197   0.2277   0.2277
     0.5634   0.5634

     occupation numbers 
     1.0000   1.0000   1.0000   1.0000   1.0000   1.0000   1.0000   1.0000
     1.0000   1.0000   1.0000   1.0000   1.0000   1.0000   1.0000   1.0000
     1.0000   1.0000   1.0000   1.0000   1.0000   1.0000   1.0000   1.0000
     1.0000   1.0000   1.0000   1.0000   1.0000   1.0000   1.0000   1.0000
     1.0000   1.0000   1.0000   1.0000   1.0000   1.0000   1.0000   1.0000
     1.0000   1.0000   1.0000   1.0000   1.0000   1.0000   1.0000   0.0001
     0.0000   0.0000   0.0000   0.0000   0.0000   0.0000   0.0000   0.0000
     0.0000   0.0000

          k =-0.0962 0.1667 0.0000 (137449 PWs)   bands (ev):

   -58.0999 -57.9988 -57.9985 -34.5621 -34.3277 -34.3240 -34.3104 -34.1775
   -34.1758 -33.9311 -33.7821 -33.7751 -19.6380 -19.0411 -18.5839 -18.4467
   -18.4189 -18.3010 -17.9972 -17.9736  -9.1098  -9.1007  -8.7793  -8.6044
    -8.2469  -8.2207  -7.9857  -7.8569  -7.6241  -7.6130  -7.1295  -7.1202
    -7.0000  -6.7601  -6.5900  -6.4221  -6.2954  -6.2585  -6.1367  -6.0191
    -5.5835  -5.4524  -5.1586  -4.9800  -3.9114  -3.2803  -3.2560  -2.0055
    -1.1592  -1.1364  -0.2952  -0.2420  -0.2087   0.0176   0.1501   0.2319
     0.5799   0.7221

     occupation numbers 
     1.0000   1.0000   1.0000   1.0000   1.0000   1.0000   1.0000   1.0000
     1.0000   1.0000   1.0000   1.0000   1.0000   1.0000   1.0000   1.0000
     1.0000   1.0000   1.0000   1.0000   1.0000   1.0000   1.0000   1.0000
     1.0000   1.0000   1.0000   1.0000   1.0000   1.0000   1.0000   1.0000
     1.0000   1.0000   1.0000   1.0000   1.0000   1.0000   1.0000   1.0000
     1.0000   1.0000   1.0000   1.0000   1.0000   1.0000   1.0000   0.0030
     0.0000   0.0000   0.0000   0.0000   0.0000   0.0000   0.0000   0.0000
     0.0000   0.0000

          k =-0.1925 0.3333 0.0000 (137535 PWs)   bands (ev):

   -58.0993 -57.9994 -57.9985 -34.5490 -34.3249 -34.3139 -34.3069 -34.1814
   -34.1762 -33.9384 -33.8001 -33.7785 -19.5935 -18.9728 -18.6445 -18.4814
   -18.4074 -18.2849 -18.0558 -17.9859  -8.9156  -8.9020  -8.7103  -8.3135
    -8.2257  -8.0697  -7.8994  -7.7969  -7.7081  -7.6236  -7.2619  -7.1010
    -6.9999  -6.9522  -6.7805  -6.5177  -6.4268  -6.3762  -6.0766  -6.0655
    -5.8186  -5.5176  -5.5140  -5.0387  -4.0133  -3.2796  -3.1943  -2.1082
    -1.1288  -1.0530  -0.4900  -0.3820  -0.3150  -0.1009   0.1712   0.1837
     0.4960   0.7411

     occupation numbers 
     1.0000   1.0000   1.0000   1.0000   1.0000   1.0000   1.0000   1.0000
     1.0000   1.0000   1.0000   1.0000   1.0000   1.0000   1.0000   1.0000
     1.0000   1.0000   1.0000   1.0000   1.0000   1.0000   1.0000   1.0000
     1.0000   1.0000   1.0000   1.0000   1.0000   1.0000   1.0000   1.0000
     1.0000   1.0000   1.0000   1.0000   1.0000   1.0000   1.0000   1.0000
     1.0000   1.0000   1.0000   1.0000   1.0000   1.0000   1.0000   0.5637
     0.0000   0.0000   0.0000   0.0000   0.0000   0.0000   0.0000   0.0000
     0.0000   0.0000

          k = 0.2887-0.5000 0.0000 (137556 PWs)   bands (ev):

   -58.0990 -57.9998 -57.9985 -34.5424 -34.3233 -34.3086 -34.3051 -34.1835
   -34.1765 -33.9423 -33.8094 -33.7801 -19.5712 -18.9106 -18.7100 -18.4928
   -18.4015 -18.2755 -18.0853 -17.9923  -8.8778  -8.8155  -8.4227  -8.3450
    -8.1067  -8.0211  -7.8586  -7.8274  -7.7379  -7.4163  -7.3766  -7.1809
    -7.1765  -6.9299  -6.7766  -6.7662  -6.5310  -6.4528  -6.0578  -6.0148
    -5.8582  -5.6981  -5.5633  -5.0627  -4.0583  -3.2863  -3.1638  -2.1682
    -1.1115  -1.0072  -0.5832  -0.4561  -0.3484  -0.1352   0.1714   0.1799
     0.4474   0.7179

     occupation numbers 
     1.0000   1.0000   1.0000   1.0000   1.0000   1.0000   1.0000   1.0000
     1.0000   1.0000   1.0000   1.0000   1.0000   1.0000   1.0000   1.0000
     1.0000   1.0000   1.0000   1.0000   1.0000   1.0000   1.0000   1.0000
     1.0000   1.0000   1.0000   1.0000   1.0000   1.0000   1.0000   1.0000
     1.0000   1.0000   1.0000   1.0000   1.0000   1.0000   1.0000   1.0000
     1.0000   1.0000   1.0000   1.0000   1.0000   1.0000   1.0000   0.9683
     0.0000   0.0000   0.0000   0.0000   0.0000   0.0000   0.0000   0.0000
     0.0000   0.0000

          k =-0.0000 0.3333 0.0000 (137410 PWs)   bands (ev):

   -58.0994 -57.9993 -57.9985 -34.5523 -34.3251 -34.3172 -34.3078 -34.1801
   -34.1764 -33.9364 -33.7943 -33.7788 -19.6047 -18.9947 -18.6155 -18.4885
   -18.4038 -18.2873 -18.0498 -17.9755  -8.9650  -8.9488  -8.7255  -8.4165
    -8.2632  -8.0948  -7.9354  -7.7661  -7.6648  -7.6272  -7.2330  -7.1242
    -7.0131  -6.9017  -6.7720  -6.4474  -6.3240  -6.2929  -6.2058  -5.9703
    -5.8048  -5.5926  -5.3248  -5.0736  -3.9812  -3.2828  -3.2051  -2.0688
    -1.1796  -1.0384  -0.4405  -0.3356  -0.2397  -0.1077   0.0733   0.2027
     0.5713   0.8212

     occupation numbers 
     1.0000   1.0000   1.0000   1.0000   1.0000   1.0000   1.0000   1.0000
     1.0000   1.0000   1.0000   1.0000   1.0000   1.0000   1.0000   1.0000
     1.0000   1.0000   1.0000   1.0000   1.0000   1.0000   1.0000   1.0000
     1.0000   1.0000   1.0000   1.0000   1.0000   1.0000   1.0000   1.0000
     1.0000   1.0000   1.0000   1.0000   1.0000   1.0000   1.0000   1.0000
     1.0000   1.0000   1.0000   1.0000   1.0000   1.0000   1.0000   0.1698
     0.0000   0.0000   0.0000   0.0000   0.0000   0.0000   0.0000   0.0000
     0.0000   0.0000

          k =-0.0962 0.5000 0.0000 (137449 PWs)   bands (ev):

   -58.0990 -57.9998 -57.9985 -34.5422 -34.3215 -34.3112 -34.3051 -34.1825
   -34.1773 -33.9418 -33.8065 -33.7830 -19.5715 -18.9183 -18.6768 -18.5330
   -18.3880 -18.2671 -18.1090 -17.9753  -8.8972  -8.7501  -8.5242  -8.2857
    -8.2046  -7.9631  -7.8532  -7.7340  -7.6996  -7.5498  -7.3924  -7.2110
    -7.1227  -6.9564  -6.8253  -6.6826  -6.5206  -6.2855  -6.1412  -6.1005
    -5.8717  -5.6770  -5.5024  -5.1588  -4.0319  -3.2847  -3.1722  -2.1299
    -1.1919  -0.9473  -0.5338  -0.4179  -0.3112  -0.2000  -0.0065   0.2238
     0.5559   0.7799

     occupation numbers 
     1.0000   1.0000   1.0000   1.0000   1.0000   1.0000   1.0000   1.0000
     1.0000   1.0000   1.0000   1.0000   1.0000   1.0000   1.0000   1.0000
     1.0000   1.0000   1.0000   1.0000   1.0000   1.0000   1.0000   1.0000
     1.0000   1.0000   1.0000   1.0000   1.0000   1.0000   1.0000   1.0000
     1.0000   1.0000   1.0000   1.0000   1.0000   1.0000   1.0000   1.0000
     1.0000   1.0000   1.0000   1.0000   1.0000   1.0000   1.0000   0.7805
     0.0000   0.0000   0.0000   0.0000   0.0000   0.0000   0.0000   0.0000
     0.0000   0.0000

          k =-0.0000 0.6667 0.0000 (137418 PWs)   bands (ev):

   -58.0988 -57.9999 -57.9985 -34.5385 -34.3163 -34.3138 -34.3042 -34.1821
   -34.1788 -33.9432 -33.8077 -33.7874 -19.5607 -18.8839 -18.6717 -18.5906
   -18.3763 -18.2458 -18.1510 -17.9653  -8.8902  -8.5961  -8.4914  -8.2572
    -8.2141  -7.9131  -7.8680  -7.7484  -7.5611  -7.4912  -7.4580  -7.2346
    -7.1193  -7.0962  -6.9735  -6.6269  -6.5038  -6.3177  -6.2985  -6.1183
    -5.8336  -5.6241  -5.5385  -5.2988  -4.0248  -3.2776  -3.1815  -2.1166
    -1.2360  -0.8915  -0.4478  -0.4257  -0.3702  -0.2420  -0.1741   0.2659
     0.6978   0.7345

     occupation numbers 
     1.0000   1.0000   1.0000   1.0000   1.0000   1.0000   1.0000   1.0000
     1.0000   1.0000   1.0000   1.0000   1.0000   1.0000   1.0000   1.0000
     1.0000   1.0000   1.0000   1.0000   1.0000   1.0000   1.0000   1.0000
     1.0000   1.0000   1.0000   1.0000   1.0000   1.0000   1.0000   1.0000
     1.0000   1.0000   1.0000   1.0000   1.0000   1.0000   1.0000   1.0000
     1.0000   1.0000   1.0000   1.0000   1.0000   1.0000   1.0000   0.6550
     0.0000   0.0000   0.0000   0.0000   0.0000   0.0000   0.0000   0.0000
     0.0000   0.0000

     the Fermi energy is    -2.1025 ev

!    total energy              =    -585.08317001 Ry
     estimated scf accuracy    <          5.3E-13 Ry
     smearing contrib. (-TS)   =      -0.00121776 Ry
     internal energy E=F+TS    =    -585.08195225 Ry

     The total energy is F=E-TS. E is the sum of the following terms:
     one-electron contribution =   -5885.38882230 Ry
     hartree contribution      =    2940.15012316 Ry
     xc contribution           =     -87.88581078 Ry
     ewald contribution        =    2448.15288869 Ry
     DFT-D3 Dispersion         =      -0.11033101 Ry

     convergence has been achieved in  16 iterations

     Forces acting on atoms (cartesian axes, Ry/au):

     atom    1 type  1   force =     0.00015658   -0.00000000   -0.00020111
     atom    2 type  1   force =    -0.00007829    0.00013560   -0.00020111
     atom    3 type  1   force =    -0.00007829   -0.00013560   -0.00020111
     atom    4 type  2   force =     0.00007702   -0.00000000    0.00007781
     atom    5 type  2   force =    -0.00003851    0.00006670    0.00007781
     atom    6 type  2   force =    -0.00003851   -0.00006670    0.00007781
     atom    7 type  2   force =     0.00000000    0.00000000   -0.00001444
     atom    8 type  2   force =    -0.00003029    0.00000000    0.00011880
     atom    9 type  2   force =     0.00001515   -0.00002623    0.00011880
     atom   10 type  2   force =     0.00001515    0.00002623    0.00011880
     atom   11 type  2   force =    -0.00000000   -0.00000000    0.00002794
     The non-local contrib.  to forces
     atom    1 type  1   force =     0.23606179    0.00000000    0.03864062
     atom    2 type  1   force =    -0.11803089    0.20443550    0.03864062
     atom    3 type  1   force =    -0.11803089   -0.20443550    0.03864062
     atom    4 type  2   force =    -0.19071851   -0.00000000    0.28974682
     atom    5 type  2   force =     0.09535926   -0.16516707    0.28974682
     atom    6 type  2   force =     0.09535926    0.16516707    0.28974682
     atom    7 type  2   force =    -0.00000000   -0.00000000    0.35319780
     atom    8 type  2   force =     0.17592555    0.00000000   -0.27587801
     atom    9 type  2   force =    -0.08796277    0.15235599   -0.27587801
     atom   10 type  2   force =    -0.08796277   -0.15235599   -0.27587801
     atom   11 type  2   force =     0.00000000    0.00000000   -0.43993834
     The ionic contribution  to forces
     atom    1 type  1   force =    -9.14654937    0.00000000    1.24068823
     atom    2 type  1   force =     4.57327469   -7.92114412    1.24068823
     atom    3 type  1   force =     4.57327469    7.92114412    1.24068823
     atom    4 type  2   force =     6.42517786   -0.00000000  -35.17957112
     atom    5 type  2   force =    -3.21258893    5.56436725  -35.17957112
     atom    6 type  2   force =    -3.21258893   -5.56436725  -35.17957112
     atom    7 type  2   force =    -0.00000000   -0.00000000  -30.03410252
     atom    8 type  2   force =    -3.56908358    0.00000000   29.69327417
     atom    9 type  2   force =     1.78454178   -3.09091705   29.69327417
     atom   10 type  2   force =     1.78454178    3.09091705   29.69327417
     atom   11 type  2   force =     0.00000000   -0.00000000   42.77092868
     The local contribution  to forces
     atom    1 type  1   force =     8.90847435    0.00000000   -1.27947210
     atom    2 type  1   force =    -4.45423718    7.71496510   -1.27947210
     atom    3 type  1   force =    -4.45423718   -7.71496510   -1.27947210
     atom    4 type  2   force =    -6.23534249    0.00000000   34.88834869
     atom    5 type  2   force =     3.11767125   -5.39996500   34.88834869
     atom    6 type  2   force =     3.11767125    5.39996500   34.88834869
     atom    7 type  2   force =    -0.00000001    0.00000000   29.68096405
     atom    8 type  2   force =     3.39362100   -0.00000000  -29.41613224
     atom    9 type  2   force =    -1.69681051    2.93896200  -29.41613224
     atom   10 type  2   force =    -1.69681051   -2.93896200  -29.41613224
     atom   11 type  2   force =     0.00000000   -0.00000000  -42.32999131
     The core correction contribution to forces
     atom    1 type  1   force =     0.00000000    0.00000000    0.00000000
     atom    2 type  1   force =     0.00000000    0.00000000    0.00000000
     atom    3 type  1   force =     0.00000000    0.00000000    0.00000000
     atom    4 type  2   force =     0.00000000    0.00000000    0.00000000
     atom    5 type  2   force =     0.00000000    0.00000000    0.00000000
     atom    6 type  2   force =     0.00000000    0.00000000    0.00000000
     atom    7 type  2   force =     0.00000000    0.00000000    0.00000000
     atom    8 type  2   force =     0.00000000    0.00000000    0.00000000
     atom    9 type  2   force =     0.00000000    0.00000000    0.00000000
     atom   10 type  2   force =     0.00000000    0.00000000    0.00000000
     atom   11 type  2   force =     0.00000000    0.00000000    0.00000000
     The Hubbard contrib.    to forces
     atom    1 type  1   force =     0.00000000    0.00000000    0.00000000
     atom    2 type  1   force =     0.00000000    0.00000000    0.00000000
     atom    3 type  1   force =     0.00000000    0.00000000    0.00000000
     atom    4 type  2   force =     0.00000000    0.00000000    0.00000000
     atom    5 type  2   force =     0.00000000    0.00000000    0.00000000
     atom    6 type  2   force =     0.00000000    0.00000000    0.00000000
     atom    7 type  2   force =     0.00000000    0.00000000    0.00000000
     atom    8 type  2   force =     0.00000000    0.00000000    0.00000000
     atom    9 type  2   force =     0.00000000    0.00000000    0.00000000
     atom   10 type  2   force =     0.00000000    0.00000000    0.00000000
     atom   11 type  2   force =     0.00000000    0.00000000    0.00000000
     The SCF correction term to forces
     atom    1 type  1   force =    -0.00000002    0.00000000   -0.00000149
     atom    2 type  1   force =     0.00000001   -0.00000002   -0.00000149
     atom    3 type  1   force =     0.00000001    0.00000002   -0.00000149
     atom    4 type  2   force =     0.00000005    0.00000000    0.00000000
     atom    5 type  2   force =    -0.00000002    0.00000004    0.00000000
     atom    6 type  2   force =    -0.00000002   -0.00000004    0.00000000
     atom    7 type  2   force =    -0.00000000   -0.00000000   -0.00000009
     atom    8 type  2   force =     0.00000013   -0.00000000   -0.00000100
     atom    9 type  2   force =    -0.00000007    0.00000011   -0.00000100
     atom   10 type  2   force =    -0.00000007   -0.00000011   -0.00000100
     atom   11 type  2   force =     0.00000000    0.00000000   -0.00000096

     DFT-D3 dispersion contribution to forces:
     atom    1 type  1   force =     0.00216983   -0.00000000   -0.00005773
     atom    2 type  1   force =    -0.00108492    0.00187913   -0.00005773
     atom    3 type  1   force =    -0.00108492   -0.00187913   -0.00005773
     atom    4 type  2   force =     0.00096012    0.00000000    0.00155207
     atom    5 type  2   force =    -0.00048006    0.00083149    0.00155207
     atom    6 type  2   force =    -0.00048006   -0.00083149    0.00155207
     atom    7 type  2   force =    -0.00000000   -0.00000000   -0.00007504
     atom    8 type  2   force =    -0.00049340   -0.00000000   -0.00114549
     atom    9 type  2   force =     0.00024670   -0.00042729   -0.00114549
     atom   10 type  2   force =     0.00024670    0.00042729   -0.00114549
     atom   11 type  2   force =     0.00000000    0.00000000   -0.00097149

     Total force =     0.000526     Total SCF correction =     0.000003

     DFT-D3 dispersion Force =     0.005454


     Computing stress (Cartesian axis) and pressure

          total   stress  (Ry/bohr**3)                   (kbar)     P=        0.90
   0.00000931  -0.00000000   0.00000000            1.37       -0.00        0.00
   0.00000000   0.00000931   0.00000000            0.00        1.37        0.00
   0.00000000   0.00000000  -0.00000034            0.00        0.00       -0.05

     kinetic stress (kbar)   2344.27     -0.00     -0.00
                               -0.00   2344.27     -0.00
                               -0.00     -0.00   2321.65

     local   stress (kbar)-105345.39     -0.00      0.00
                               -0.00-105345.39     -0.00
                                0.00     -0.00 101399.08

     nonloc. stress (kbar)   2131.54      0.00      0.00
                                0.00   2131.54      0.00
                                0.00      0.00   2138.35

     hartree stress (kbar)  51677.62      0.00     -0.00
                                0.00  51677.62      0.00
                               -0.00      0.00 -50221.48

     exc-cor stress (kbar)   -496.01      0.00     -0.00
                                0.00   -496.01     -0.00
                               -0.00     -0.00   -497.15

     corecor stress (kbar)      0.00      0.00      0.00
                                0.00      0.00      0.00
                                0.00      0.00      0.00

     ewald   stress (kbar)  49691.25     -0.00     -0.00
                               -0.00  49691.25     -0.00
                               -0.00     -0.00 -55140.01

     hubbard stress (kbar)      0.00      0.00      0.00
                                0.00      0.00      0.00
                                0.00      0.00      0.00

     DFT-D   stress (kbar)     -1.91     -0.00     -0.00
                               -0.00     -1.91      0.00
                               -0.00      0.00     -0.48

     XDM     stress (kbar)      0.00      0.00      0.00
                                0.00      0.00      0.00
                                0.00      0.00      0.00

     dft-nl  stress (kbar)      0.00      0.00      0.00
                                0.00      0.00      0.00
                                0.00      0.00      0.00

     TS-vdW  stress (kbar)      0.00      0.00      0.00
                                0.00      0.00      0.00
                                0.00      0.00      0.00

     MDB     stress (kbar)      0.00      0.00      0.00
                                0.00      0.00      0.00
                                0.00      0.00      0.00

     3D-RISM stress (kbar)      0.00      0.00      0.00
                                0.00      0.00      0.00
                                0.00      0.00      0.00


     Writing all to output data dir ./out/Nb3Cl8.save/ :
     XML data file, charge density, pseudopotentials, collected wavefunctions

     init_run     :      0.70s CPU      0.80s WALL (       1 calls)
     electrons    :     13.59s CPU     15.25s WALL (       1 calls)
     forces       :      0.12s CPU      0.14s WALL (       1 calls)
     force_dftd3  :      0.01s CPU      0.01s WALL (       1 calls)
     stress       :      0.72s CPU      0.75s WALL (       1 calls)
     stres_dftd3  :      0.00s CPU      0.00s WALL (       1 calls)

     Called by init_run:
     wfcinit      :      0.15s CPU      0.17s WALL (       1 calls)
     wfcinit:wfcr :      0.13s CPU      0.14s WALL (       1 calls)
     potinit      :      0.07s CPU      0.07s WALL (       1 calls)
     hinit0       :      0.13s CPU      0.15s WALL (       1 calls)

     Called by electrons:
     c_bands      :     11.02s CPU     11.24s WALL (      17 calls)
     sum_band     :      1.31s CPU      1.38s WALL (      17 calls)
     v_of_rho     :      0.76s CPU      0.85s WALL (      17 calls)
     v_h          :      0.06s CPU      0.08s WALL (      17 calls)
     v_xc         :      0.69s CPU      0.77s WALL (      17 calls)
     mix_rho      :      0.30s CPU      0.32s WALL (      17 calls)
     energy_dftd3 :      0.00s CPU      0.00s WALL (       1 calls)

     Called by c_bands:
     init_us_2    :      0.31s CPU      0.32s WALL (      35 calls)
     cegterg      :      9.41s CPU      9.58s WALL (      17 calls)

     Called by sum_band:
     sum_band:wei :      0.03s CPU      0.03s WALL (      17 calls)
     sum_band:loo :      1.05s CPU      1.06s WALL (      17 calls)
     sum_band:buf :      0.00s CPU      0.00s WALL (      17 calls)
     sum_band:ini :      0.17s CPU      0.17s WALL (      17 calls)

     Called by *egterg:
     cdiaghg      :      0.42s CPU      0.43s WALL (     111 calls)
     cegterg:over :      0.75s CPU      0.76s WALL (      95 calls)
     cegterg:upda :      0.53s CPU      0.54s WALL (      95 calls)
     cegterg:last :      0.71s CPU      0.72s WALL (      43 calls)
     h_psi        :      6.80s CPU      6.94s WALL (     113 calls)
     g_psi        :      0.03s CPU      0.03s WALL (      95 calls)

     Called by h_psi:
     h_psi:calbec :      0.64s CPU      0.65s WALL (     113 calls)
     vloc_psi     :      5.50s CPU      5.60s WALL (     113 calls)
     add_vuspsi   :      0.54s CPU      0.55s WALL (     113 calls)

     General routines
     calbec       :      0.69s CPU      0.70s WALL (     118 calls)
     fft          :      0.38s CPU      0.47s WALL (     178 calls)
     ffts         :      0.05s CPU      0.06s WALL (      17 calls)
     fftw         :      5.77s CPU      5.88s WALL (    7292 calls)

     Parallel routines

     PWSCF        :    100.19s CPU    137.44s WALL


   This run was terminated on:   9:32:16   8May2025            

=------------------------------------------------------------------------------=
   JOB DONE.
=------------------------------------------------------------------------------=
