
     Program PWSCF v.7.3.1 starts on  7May2025 at 11:42:55 

     This program is part of the open-source Quantum ESPRESSO suite
     for quantum simulation of materials; please cite
         "P. Giannozzi et al., J. Phys.:Condens. Matter 21 395502 (2009);
         "P. Giannozzi et al., J. Phys.:Condens. Matter 29 465901 (2017);
         "P. Giannozzi et al., J. Chem. Phys. 152 154105 (2020);
          URL http://www.quantum-espresso.org", 
     in publications or presentations arising from this work. More details at
     http://www.quantum-espresso.org/quote

     Parallel version (MPI & OpenMP), running on     384 processor cores
     Number of MPI processes:               384
     Threads/MPI process:                     1

     MPI processes distributed on     2 nodes
     336840 MiB available memory on the printing compute node when the environment starts

     Waiting for input...
     Reading input from standard input
Warning: card &CELL ignored
Warning: card / ignored
Warning: card &FCP ignored
Warning: card / ignored
Warning: card &RISM ignored
Warning: card / ignored

     Current dimensions of program PWSCF are:
     Max number of different atomic species (ntypx) = 10
     Max number of k-points (npk) =  40000
     Max angular momentum in pseudopotentials (lmaxx) =  4

     IMPORTANT: XC functional enforced from input :
     Exchange-correlation= PBE
                           (   1   4   3   4   0   0   0)
     Any further DFT definition will be discarded
     Please, verify this is what you really want

     Message from routine setup:
     using ibrav=0 with symmetry is DISCOURAGED, use correct ibrav instead

     K-points division:     npool     =      12
     R & G space division:  proc/nbgrp/npool/nimage =      32
     Subspace diagonalization in iterative solution of the eigenvalue problem:
     a serial algorithm will be used


     Parallelization info
     --------------------
     sticks:   dense  smooth     PW     G-vecs:    dense   smooth      PW
     Min         140     140     37                13746    13746    1889
     Max         141     141     38                13752    13752    1896
     Sum        4483    4483   1189               439935   439935   60539

     Using Slab Decomposition



     bravais-lattice index     =            0
     lattice parameter (alat)  =      12.7288  a.u.
     unit-cell volume          =    3256.0167 (a.u.)^3
     number of atoms/cell      =           22
     number of atomic types    =            2
     number of electrons       =       190.00
     number of Kohn-Sham states=          114
     kinetic-energy cutoff     =     100.0000  Ry
     charge density cutoff     =     400.0000  Ry
     scf convergence threshold =      1.0E-12
     mixing beta               =       0.7000
     number of iterations used =            8  plain     mixing
     Exchange-correlation= PBE
                           (   1   4   3   4   0   0   0)

     celldm(1)=  12.728776  celldm(2)=   0.000000  celldm(3)=   0.000000
     celldm(4)=   0.000000  celldm(5)=   0.000000  celldm(6)=   0.000000

     crystal axes: (cart. coord. in units of alat)
               a(1) = (   0.866025   0.500000   0.000000 )  
               a(2) = (  -0.866025   0.500000   0.000000 )  
               a(3) = (  -0.577350   0.000000   1.823039 )  

     reciprocal axes: (cart. coord. in units 2 pi/alat)
               b(1) = (  0.577350  1.000000  0.182845 )  
               b(2) = ( -0.577350  1.000000 -0.182845 )  
               b(3) = (  0.000000 -0.000000  0.548535 )  


     PseudoPot. # 1 for Nb read from file:
     /scratch-shared/mroesner/Nb3X8_cDFPT/pp/Nb_ONCV_PBE-1.2.upf
     MD5 check sum: 2c750ac0b6910ff4cf0ab5f6c4124a64
     Pseudo is Norm-conserving, Zval = 13.0
     Generated using ONCVPSP code by D. R. Hamann
     Using radial grid of  602 points,  6 beta functions with: 
                l(1) =   0
                l(2) =   0
                l(3) =   1
                l(4) =   1
                l(5) =   2
                l(6) =   2

     PseudoPot. # 2 for Cl read from file:
     /scratch-shared/mroesner/Nb3X8_cDFPT/pp/Cl_ONCV_PBE-1.2.upf
     MD5 check sum: 0f993535b366f580ecbcdacce103c843
     Pseudo is Norm-conserving, Zval =  7.0
     Generated using ONCVPSP code by D. R. Hamann
     Using radial grid of  602 points,  4 beta functions with: 
                l(1) =   0
                l(2) =   0
                l(3) =   1
                l(4) =   1

     atomic species   valence    mass     pseudopotential
     Nb               13.00    92.90637     Nb( 1.00)
     Cl                7.00    35.45270     Cl( 1.00)

     12 Sym. Ops., with inversion, found


                                    s                        frac. trans.

      isym =  1     identity                                     

 cryst.   s( 1) = (     1          0          0      )
                  (     0          1          0      )
                  (     0          0          1      )

 cart.    s( 1) = (  1.0000000  0.0000000  0.0000000 )
                  ( -0.0000000  1.0000000  0.0000000 )
                  (  0.0000000  0.0000000  1.0000000 )


      isym =  2     180 deg rotation - cart. axis [0,1,0]        

 cryst.   s( 2) = (     0          1          0      )
                  (     1          0          0      )
                  (     0          0         -1      )

 cart.    s( 2) = ( -1.0000000  0.0000000 -0.0000000 )
                  (  0.0000000  1.0000000 -0.0000000 )
                  (  0.0000000  0.0000000 -1.0000000 )


      isym =  3     120 deg rotation - cryst. axis [0,0,1]       

 cryst.   s( 3) = (     0          1          0      )
                  (    -1         -1          0      )
                  (     0         -1          1      )

 cart.    s( 3) = ( -0.5000000 -0.8660254  0.0000000 )
                  (  0.8660254 -0.5000000  0.0000000 )
                  (  0.0000000  0.0000000  1.0000000 )


      isym =  4     120 deg rotation - cryst. axis [0,0,-1]      

 cryst.   s( 4) = (    -1         -1          0      )
                  (     1          0          0      )
                  (     1          0          1      )

 cart.    s( 4) = ( -0.5000000  0.8660254  0.0000000 )
                  ( -0.8660254 -0.5000000  0.0000000 )
                  (  0.0000000  0.0000000  1.0000000 )


      isym =  5     180 deg rotation - cryst. axis [1,-1,0]      

 cryst.   s( 5) = (    -1         -1          0      )
                  (     0          1          0      )
                  (     0          1         -1      )

 cart.    s( 5) = (  0.5000000 -0.8660254 -0.0000000 )
                  ( -0.8660254 -0.5000000 -0.0000000 )
                  (  0.0000000  0.0000000 -1.0000000 )


      isym =  6     180 deg rotation - cryst. axis [2,1,0]       

 cryst.   s( 6) = (     1          0          0      )
                  (    -1         -1          0      )
                  (    -1          0         -1      )

 cart.    s( 6) = (  0.5000000  0.8660254 -0.0000000 )
                  (  0.8660254 -0.5000000 -0.0000000 )
                  (  0.0000000  0.0000000 -1.0000000 )


      isym =  7     inversion                                    

 cryst.   s( 7) = (    -1          0          0      )
                  (     0         -1          0      )
                  (     0          0         -1      )

 cart.    s( 7) = ( -1.0000000 -0.0000000 -0.0000000 )
                  (  0.0000000 -1.0000000 -0.0000000 )
                  (  0.0000000  0.0000000 -1.0000000 )


      isym =  8     inv. 180 deg rotation - cart. axis [0,1,0]   

 cryst.   s( 8) = (     0         -1          0      )
                  (    -1          0          0      )
                  (     0          0          1      )

 cart.    s( 8) = (  1.0000000 -0.0000000  0.0000000 )
                  ( -0.0000000 -1.0000000  0.0000000 )
                  (  0.0000000  0.0000000  1.0000000 )


      isym =  9     inv. 120 deg rotation - cryst. axis [0,0,1]  

 cryst.   s( 9) = (     0         -1          0      )
                  (     1          1          0      )
                  (     0          1         -1      )

 cart.    s( 9) = (  0.5000000  0.8660254 -0.0000000 )
                  ( -0.8660254  0.5000000 -0.0000000 )
                  (  0.0000000  0.0000000 -1.0000000 )


      isym = 10     inv. 120 deg rotation - cryst. axis [0,0,-1] 

 cryst.   s(10) = (     1          1          0      )
                  (    -1          0          0      )
                  (    -1          0         -1      )

 cart.    s(10) = (  0.5000000 -0.8660254 -0.0000000 )
                  (  0.8660254  0.5000000 -0.0000000 )
                  (  0.0000000  0.0000000 -1.0000000 )


      isym = 11     inv. 180 deg rotation - cryst. axis [1,-1,0] 

 cryst.   s(11) = (     1          1          0      )
                  (     0         -1          0      )
                  (     0         -1          1      )

 cart.    s(11) = ( -0.5000000  0.8660254  0.0000000 )
                  (  0.8660254  0.5000000  0.0000000 )
                  (  0.0000000  0.0000000  1.0000000 )


      isym = 12     inv. 180 deg rotation - cryst. axis [2,1,0]  

 cryst.   s(12) = (    -1          0          0      )
                  (     1          1          0      )
                  (     1          0          1      )

 cart.    s(12) = ( -0.5000000 -0.8660254  0.0000000 )
                  ( -0.8660254  0.5000000  0.0000000 )
                  (  0.0000000  0.0000000  1.0000000 )


   Cartesian axes

     site n.     atom                  positions (alat units)
         1        Nb     tau(   1) = (   0.2397773  -0.0000000  -0.4602555  )
         2        Nb     tau(   2) = (  -0.1198887   0.2076533  -0.4602555  )
         3        Nb     tau(   3) = (  -0.1198887  -0.2076533  -0.4602555  )
         4        Nb     tau(   4) = (  -0.2397773   0.0000000   0.4602555  )
         5        Nb     tau(   5) = (   0.1198887  -0.2076533   0.4602555  )
         6        Nb     tau(   6) = (   0.1198887   0.2076533   0.4602555  )
         7        Cl     tau(   7) = (  -0.0000000  -0.0000000  -0.7326469  )
         8        Cl     tau(   8) = (   0.8695054   0.0000000  -0.6624859  )
         9        Cl     tau(   9) = (   0.4312727   0.2530138  -0.6624859  )
        10        Cl     tau(  10) = (   0.4312727  -0.2530138  -0.6624859  )
        11        Cl     tau(  11) = (   0.5773503  -0.0000000  -0.2579735  )
        12        Cl     tau(  12) = (  -0.2865795   0.0000000  -0.2167955  )
        13        Cl     tau(  13) = (   0.1432898  -0.2481851  -0.2167955  )
        14        Cl     tau(  14) = (   0.1432898   0.2481851  -0.2167955  )
        15        Cl     tau(  15) = (   0.2865795  -0.0000000   0.2167955  )
        16        Cl     tau(  16) = (  -0.1432898   0.2481851   0.2167955  )
        17        Cl     tau(  17) = (  -0.1432898  -0.2481851   0.2167955  )
        18        Cl     tau(  18) = (  -0.5773503   0.0000000   0.2579735  )
        19        Cl     tau(  19) = (  -0.8695054  -0.0000000   0.6624859  )
        20        Cl     tau(  20) = (  -0.4312727  -0.2530138   0.6624859  )
        21        Cl     tau(  21) = (  -0.4312727   0.2530138   0.6624859  )
        22        Cl     tau(  22) = (   0.0000000   0.0000000   0.7326469  )

     --------------------------------------------
     DFT-D3 Dispersion Correction (no 3-body):
     --------------------------------------------
       Reference C6 values for interpolation: 

         atom   Coordination number   C6
         Cl         0.000           184.69
         Cl         0.997           180.80
         Nb         0.000          2950.50
         Nb         1.954          1161.16
         Nb         2.922           857.79

       Values used:

         atom   Coordination number  R0_AB[au]  C6      C8
         Nb         8.273            3.647    857.79 111659.18
         Nb         8.273            3.647    857.79 111659.18
         Nb         8.273            3.647    857.79 111659.18
         Nb         8.273            3.647    857.79 111659.18
         Nb         8.273            3.647    857.79 111659.18
         Nb         8.273            3.647    857.79 111659.18
         Cl         3.219            2.933    180.80   7543.49
         Cl         2.296            2.933    180.80   7543.50
         Cl         2.296            2.933    180.80   7543.50
         Cl         2.296            2.933    180.80   7543.50
         Cl         3.113            2.933    180.80   7543.49
         Cl         2.311            2.933    180.80   7543.50
         Cl         2.311            2.933    180.80   7543.50
         Cl         2.311            2.933    180.80   7543.50
         Cl         2.311            2.933    180.80   7543.50
         Cl         2.311            2.933    180.80   7543.50
         Cl         2.311            2.933    180.80   7543.50
         Cl         3.113            2.933    180.80   7543.49
         Cl         2.296            2.933    180.80   7543.50
         Cl         2.296            2.933    180.80   7543.50
         Cl         2.296            2.933    180.80   7543.50
         Cl         3.219            2.933    180.80   7543.49

         Molecular C6 ( Ry / a.u.^6 ) =    150899.93


   Crystallographic axes

     site n.     atom                  positions (cryst. coord.)
         1        Nb     tau(   1) = (  0.0542802 -0.0542802 -0.2524660  )
         2        Nb     tau(   2) = (  0.0542802  0.3610264 -0.2524660  )
         3        Nb     tau(   3) = ( -0.3610264 -0.0542802 -0.2524660  )
         4        Nb     tau(   4) = ( -0.0542802  0.0542802  0.2524660  )
         5        Nb     tau(   5) = ( -0.0542802 -0.3610264  0.2524660  )
         6        Nb     tau(   6) = (  0.3610264  0.0542802  0.2524660  )
         7        Cl     tau(   7) = ( -0.1339607  0.1339607 -0.4018822  )
         8        Cl     tau(   8) = (  0.3808770 -0.3808770 -0.3633964  )
         9        Cl     tau(   9) = (  0.3808770  0.1251505 -0.3633964  )
        10        Cl     tau(  10) = ( -0.1251505 -0.3808770 -0.3633964  )
        11        Cl     tau(  11) = (  0.2861642 -0.2861642 -0.1415074  )
        12        Cl     tau(  12) = ( -0.2050967  0.2050967 -0.1189198  )
        13        Cl     tau(  13) = ( -0.2050967 -0.2912736 -0.1189198  )
        14        Cl     tau(  14) = (  0.2912736  0.2050967 -0.1189198  )
        15        Cl     tau(  15) = (  0.2050967 -0.2050967  0.1189198  )
        16        Cl     tau(  16) = (  0.2050967  0.2912736  0.1189198  )
        17        Cl     tau(  17) = ( -0.2912736 -0.2050967  0.1189198  )
        18        Cl     tau(  18) = ( -0.2861642  0.2861642  0.1415074  )
        19        Cl     tau(  19) = ( -0.3808770  0.3808770  0.3633964  )
        20        Cl     tau(  20) = ( -0.3808770 -0.1251505  0.3633964  )
        21        Cl     tau(  21) = (  0.1251505  0.3808770  0.3633964  )
        22        Cl     tau(  22) = (  0.1339607 -0.1339607  0.4018822  )

     number of k points=    32  Gaussian smearing, width (Ry)=  0.0037
                       cart. coord. in units 2pi/alat
        k(    1) = (   0.0000000   0.0000000   0.0000000), wk =   0.0092593
        k(    2) = (   0.0000000   0.0000000   0.0914224), wk =   0.0185185
        k(    3) = (   0.0000000   0.0000000   0.1828448), wk =   0.0185185
        k(    4) = (   0.0000000   0.0000000  -0.2742673), wk =   0.0092593
        k(    5) = (  -0.0962250   0.1666667  -0.0304741), wk =   0.0555556
        k(    6) = (  -0.0962250   0.1666667   0.0609483), wk =   0.0555556
        k(    7) = (  -0.0962250   0.1666667   0.1523707), wk =   0.0555556
        k(    8) = (  -0.0962250   0.1666667  -0.3047414), wk =   0.0555556
        k(    9) = (  -0.0962250   0.1666667  -0.2133190), wk =   0.0555556
        k(   10) = (  -0.0962250   0.1666667  -0.1218966), wk =   0.0555556
        k(   11) = (  -0.1924501   0.3333333  -0.0609483), wk =   0.0555556
        k(   12) = (  -0.1924501   0.3333333   0.0304741), wk =   0.0555556
        k(   13) = (  -0.1924501   0.3333333   0.1218966), wk =   0.0555556
        k(   14) = (  -0.1924501   0.3333333  -0.3352156), wk =   0.0555556
        k(   15) = (  -0.1924501   0.3333333  -0.2437931), wk =   0.0555556
        k(   16) = (  -0.1924501   0.3333333  -0.1523707), wk =   0.0555556
        k(   17) = (   0.2886751  -0.5000000   0.0914224), wk =   0.0277778
        k(   18) = (   0.2886751  -0.5000000   0.1828448), wk =   0.0555556
        k(   19) = (   0.2886751  -0.5000000   0.2742673), wk =   0.0555556
        k(   20) = (   0.2886751  -0.5000000  -0.1828448), wk =   0.0277778
        k(   21) = (  -0.0000000   0.3333333  -0.0000000), wk =   0.0555556
        k(   22) = (  -0.0000000   0.3333333   0.0914224), wk =   0.1111111
        k(   23) = (  -0.0000000   0.3333333   0.1828448), wk =   0.1111111
        k(   24) = (  -0.0000000   0.3333333  -0.2742673), wk =   0.0555556
        k(   25) = (  -0.0962250   0.5000000  -0.0304741), wk =   0.1111111
        k(   26) = (  -0.0962250   0.5000000   0.0609483), wk =   0.1111111
        k(   27) = (  -0.0962250   0.5000000   0.1523707), wk =   0.1111111
        k(   28) = (  -0.0962250   0.5000000  -0.3047414), wk =   0.1111111
        k(   29) = (  -0.0962250   0.5000000  -0.2133190), wk =   0.1111111
        k(   30) = (  -0.0962250   0.5000000  -0.1218966), wk =   0.1111111
        k(   31) = (  -0.0000000   0.6666667  -0.0000000), wk =   0.0555556
        k(   32) = (  -0.0000000   0.6666667   0.0914224), wk =   0.0555556

                       cryst. coord.
        k(    1) = (   0.0000000   0.0000000   0.0000000), wk =   0.0092593
        k(    2) = (   0.0000000   0.0000000   0.1666667), wk =   0.0185185
        k(    3) = (   0.0000000   0.0000000   0.3333333), wk =   0.0185185
        k(    4) = (   0.0000000   0.0000000  -0.5000000), wk =   0.0092593
        k(    5) = (  -0.0000000   0.1666667   0.0000000), wk =   0.0555556
        k(    6) = (  -0.0000000   0.1666667   0.1666667), wk =   0.0555556
        k(    7) = (  -0.0000000   0.1666667   0.3333333), wk =   0.0555556
        k(    8) = (  -0.0000000   0.1666667  -0.5000000), wk =   0.0555556
        k(    9) = (  -0.0000000   0.1666667  -0.3333333), wk =   0.0555556
        k(   10) = (  -0.0000000   0.1666667  -0.1666667), wk =   0.0555556
        k(   11) = (  -0.0000000   0.3333333   0.0000000), wk =   0.0555556
        k(   12) = (  -0.0000000   0.3333333   0.1666667), wk =   0.0555556
        k(   13) = (  -0.0000000   0.3333333   0.3333333), wk =   0.0555556
        k(   14) = (  -0.0000000   0.3333333  -0.5000000), wk =   0.0555556
        k(   15) = (  -0.0000000   0.3333333  -0.3333333), wk =   0.0555556
        k(   16) = (  -0.0000000   0.3333333  -0.1666667), wk =   0.0555556
        k(   17) = (   0.0000000  -0.5000000  -0.0000000), wk =   0.0277778
        k(   18) = (   0.0000000  -0.5000000   0.1666667), wk =   0.0555556
        k(   19) = (   0.0000000  -0.5000000   0.3333333), wk =   0.0555556
        k(   20) = (   0.0000000  -0.5000000  -0.5000000), wk =   0.0277778
        k(   21) = (   0.1666667   0.1666667   0.0000000), wk =   0.0555556
        k(   22) = (   0.1666667   0.1666667   0.1666667), wk =   0.1111111
        k(   23) = (   0.1666667   0.1666667   0.3333333), wk =   0.1111111
        k(   24) = (   0.1666667   0.1666667  -0.5000000), wk =   0.0555556
        k(   25) = (   0.1666667   0.3333333   0.0000000), wk =   0.1111111
        k(   26) = (   0.1666667   0.3333333   0.1666667), wk =   0.1111111
        k(   27) = (   0.1666667   0.3333333   0.3333333), wk =   0.1111111
        k(   28) = (   0.1666667   0.3333333  -0.5000000), wk =   0.1111111
        k(   29) = (   0.1666667   0.3333333  -0.3333333), wk =   0.1111111
        k(   30) = (   0.1666667   0.3333333  -0.1666667), wk =   0.1111111
        k(   31) = (   0.3333333   0.3333333   0.0000000), wk =   0.0555556
        k(   32) = (   0.3333333   0.3333333   0.1666667), wk =   0.0555556

     Dense  grid:   439935 G-vectors     FFT dimensions: ( 180, 180, 180)

     Dynamical RAM for                 wfc:       2.99 MB

     Dynamical RAM for     wfc (w. buffer):      11.95 MB

     Dynamical RAM for           str. fact:       0.42 MB

     Dynamical RAM for           local pot:       0.00 MB

     Dynamical RAM for          nlocal pot:       6.19 MB

     Dynamical RAM for                qrad:       3.21 MB

     Dynamical RAM for          rho,v,vnew:       5.08 MB

     Dynamical RAM for               rhoin:       1.69 MB

     Dynamical RAM for            rho*nmix:       3.36 MB

     Dynamical RAM for           G-vectors:       0.89 MB

     Dynamical RAM for          h,s,v(r/c):       2.38 MB

     Dynamical RAM for          <psi|beta>:       0.41 MB

     Dynamical RAM for                 psi:       5.98 MB

     Dynamical RAM for                hpsi:       5.98 MB

     Dynamical RAM for      wfcinit/wfcrot:       6.28 MB

     Estimated static dynamical RAM per process >      37.48 MB

     Estimated max dynamical RAM per process >      55.58 MB

     Estimated total dynamical RAM >      19.69 GB

     Initial potential from superposition of free atoms

     starting charge     189.2322, renormalised to     190.0000
     Starting wfcs are random

     total cpu time spent up to now is        4.4 secs

     per-process dynamical memory:   172.4 Mb

     Self-consistent Calculation

     iteration #  1     ecut=   100.00 Ry     beta= 0.70
     Davidson diagonalization with overlap

---- Real-time Memory Report at c_bands before calling an iterative solver
           254 MiB given to the printing process from OS
           168 MiB allocation reported by mallinfo(arena+hblkhd)
        326146 MiB available memory on the node where the printing process lives
------------------
     ethr =  1.00E-02,  avg # of iterations = 12.5

     Threshold (ethr) on eigenvalues was too large:
     Diagonalizing with lowered threshold

     Davidson diagonalization with overlap

---- Real-time Memory Report at c_bands before calling an iterative solver
           277 MiB given to the printing process from OS
           175 MiB allocation reported by mallinfo(arena+hblkhd)
        324795 MiB available memory on the node where the printing process lives
------------------
     ethr =  3.38E-04,  avg # of iterations = 12.3

     total cpu time spent up to now is       24.5 secs

     total energy              =   -1170.06500961 Ry
     estimated scf accuracy    <       0.62944609 Ry

     iteration #  2     ecut=   100.00 Ry     beta= 0.70
     Davidson diagonalization with overlap

---- Real-time Memory Report at c_bands before calling an iterative solver
           292 MiB given to the printing process from OS
           181 MiB allocation reported by mallinfo(arena+hblkhd)
        324100 MiB available memory on the node where the printing process lives
------------------
     ethr =  3.31E-04,  avg # of iterations =  3.2

     total cpu time spent up to now is       30.0 secs

     total energy              =   -1170.19459986 Ry
     estimated scf accuracy    <       0.28484760 Ry

     iteration #  3     ecut=   100.00 Ry     beta= 0.70
     Davidson diagonalization with overlap

---- Real-time Memory Report at c_bands before calling an iterative solver
           298 MiB given to the printing process from OS
           181 MiB allocation reported by mallinfo(arena+hblkhd)
        324004 MiB available memory on the node where the printing process lives
------------------
     ethr =  1.50E-04,  avg # of iterations =  3.2

     total cpu time spent up to now is       35.6 secs

     total energy              =   -1170.24213360 Ry
     estimated scf accuracy    <       0.11617214 Ry

     iteration #  4     ecut=   100.00 Ry     beta= 0.70
     Davidson diagonalization with overlap

---- Real-time Memory Report at c_bands before calling an iterative solver
           298 MiB given to the printing process from OS
           181 MiB allocation reported by mallinfo(arena+hblkhd)
        323961 MiB available memory on the node where the printing process lives
------------------
     ethr =  6.11E-05,  avg # of iterations =  4.0

     total cpu time spent up to now is       41.3 secs

     total energy              =   -1170.26565902 Ry
     estimated scf accuracy    <       0.02729006 Ry

     iteration #  5     ecut=   100.00 Ry     beta= 0.70
     Davidson diagonalization with overlap

---- Real-time Memory Report at c_bands before calling an iterative solver
           301 MiB given to the printing process from OS
           183 MiB allocation reported by mallinfo(arena+hblkhd)
        323921 MiB available memory on the node where the printing process lives
------------------
     ethr =  1.44E-05,  avg # of iterations =  3.8

     total cpu time spent up to now is       46.6 secs

     total energy              =   -1170.27016469 Ry
     estimated scf accuracy    <       0.00705134 Ry

     iteration #  6     ecut=   100.00 Ry     beta= 0.70
     Davidson diagonalization with overlap

---- Real-time Memory Report at c_bands before calling an iterative solver
           301 MiB given to the printing process from OS
           183 MiB allocation reported by mallinfo(arena+hblkhd)
        323941 MiB available memory on the node where the printing process lives
------------------
     ethr =  3.71E-06,  avg # of iterations =  6.9

     total cpu time spent up to now is       52.2 secs

     total energy              =   -1170.27153524 Ry
     estimated scf accuracy    <       0.00083334 Ry

     iteration #  7     ecut=   100.00 Ry     beta= 0.70
     Davidson diagonalization with overlap

---- Real-time Memory Report at c_bands before calling an iterative solver
           301 MiB given to the printing process from OS
           183 MiB allocation reported by mallinfo(arena+hblkhd)
        323926 MiB available memory on the node where the printing process lives
------------------
     ethr =  4.39E-07,  avg # of iterations =  8.2

     total cpu time spent up to now is       58.6 secs

     total energy              =   -1170.27170037 Ry
     estimated scf accuracy    <       0.00001827 Ry

     iteration #  8     ecut=   100.00 Ry     beta= 0.70
     Davidson diagonalization with overlap

---- Real-time Memory Report at c_bands before calling an iterative solver
           301 MiB given to the printing process from OS
           183 MiB allocation reported by mallinfo(arena+hblkhd)
        323912 MiB available memory on the node where the printing process lives
------------------
     ethr =  9.62E-09,  avg # of iterations = 10.0

     total cpu time spent up to now is       66.0 secs

     total energy              =   -1170.27170734 Ry
     estimated scf accuracy    <       0.00000560 Ry

     iteration #  9     ecut=   100.00 Ry     beta= 0.70
     Davidson diagonalization with overlap

---- Real-time Memory Report at c_bands before calling an iterative solver
           302 MiB given to the printing process from OS
           184 MiB allocation reported by mallinfo(arena+hblkhd)
        323870 MiB available memory on the node where the printing process lives
------------------
     ethr =  2.94E-09,  avg # of iterations =  3.9

     total cpu time spent up to now is       72.6 secs

     total energy              =   -1170.27170836 Ry
     estimated scf accuracy    <       0.00000057 Ry

     iteration # 10     ecut=   100.00 Ry     beta= 0.70
     Davidson diagonalization with overlap

---- Real-time Memory Report at c_bands before calling an iterative solver
           302 MiB given to the printing process from OS
           184 MiB allocation reported by mallinfo(arena+hblkhd)
        323810 MiB available memory on the node where the printing process lives
------------------
     ethr =  2.99E-10,  avg # of iterations =  8.6

     total cpu time spent up to now is       79.3 secs

     total energy              =   -1170.27170851 Ry
     estimated scf accuracy    <       0.00000004 Ry

     iteration # 11     ecut=   100.00 Ry     beta= 0.70
     Davidson diagonalization with overlap

---- Real-time Memory Report at c_bands before calling an iterative solver
           302 MiB given to the printing process from OS
           184 MiB allocation reported by mallinfo(arena+hblkhd)
        323866 MiB available memory on the node where the printing process lives
------------------
     ethr =  2.03E-11,  avg # of iterations =  9.4

     total cpu time spent up to now is       86.2 secs

     total energy              =   -1170.27170852 Ry
     estimated scf accuracy    <          4.3E-09 Ry

     iteration # 12     ecut=   100.00 Ry     beta= 0.70
     Davidson diagonalization with overlap

---- Real-time Memory Report at c_bands before calling an iterative solver
           302 MiB given to the printing process from OS
           184 MiB allocation reported by mallinfo(arena+hblkhd)
        323787 MiB available memory on the node where the printing process lives
------------------
     ethr =  2.24E-12,  avg # of iterations =  9.9

     total cpu time spent up to now is       93.0 secs

     total energy              =   -1170.27170852 Ry
     estimated scf accuracy    <          7.7E-10 Ry

     iteration # 13     ecut=   100.00 Ry     beta= 0.70
     Davidson diagonalization with overlap

---- Real-time Memory Report at c_bands before calling an iterative solver
           302 MiB given to the printing process from OS
           184 MiB allocation reported by mallinfo(arena+hblkhd)
        323754 MiB available memory on the node where the printing process lives
------------------
     ethr =  4.05E-13,  avg # of iterations =  8.2

     total cpu time spent up to now is      100.1 secs

     total energy              =   -1170.27170852 Ry
     estimated scf accuracy    <          5.2E-11 Ry

     iteration # 14     ecut=   100.00 Ry     beta= 0.70
     Davidson diagonalization with overlap

---- Real-time Memory Report at c_bands before calling an iterative solver
           302 MiB given to the printing process from OS
           184 MiB allocation reported by mallinfo(arena+hblkhd)
        323797 MiB available memory on the node where the printing process lives
------------------
     ethr =  1.00E-13,  avg # of iterations =  4.3

     total cpu time spent up to now is      106.2 secs

     total energy              =   -1170.27170852 Ry
     estimated scf accuracy    <          1.4E-11 Ry

     iteration # 15     ecut=   100.00 Ry     beta= 0.70
     Davidson diagonalization with overlap

---- Real-time Memory Report at c_bands before calling an iterative solver
           302 MiB given to the printing process from OS
           184 MiB allocation reported by mallinfo(arena+hblkhd)
        323697 MiB available memory on the node where the printing process lives
------------------
     ethr =  1.00E-13,  avg # of iterations =  3.4

     total cpu time spent up to now is      111.0 secs

     total energy              =   -1170.27170852 Ry
     estimated scf accuracy    <          8.6E-12 Ry

     iteration # 16     ecut=   100.00 Ry     beta= 0.70
     Davidson diagonalization with overlap

---- Real-time Memory Report at c_bands before calling an iterative solver
           302 MiB given to the printing process from OS
           184 MiB allocation reported by mallinfo(arena+hblkhd)
        323775 MiB available memory on the node where the printing process lives
------------------
     ethr =  1.00E-13,  avg # of iterations =  2.2

     total cpu time spent up to now is      115.3 secs

     End of self-consistent calculation

          k = 0.0000 0.0000 0.0000 ( 54955 PWs)   bands (ev):

   -48.0018 -48.0018 -47.8975 -47.8975 -47.8975 -47.8975 -24.4849 -24.4849
   -24.2415 -24.2415 -24.2415 -24.2415 -24.2153 -24.2151 -24.0748 -24.0748
   -24.0748 -24.0748 -23.8322 -23.8322 -23.6749 -23.6749 -23.6749 -23.6749
    -9.6441  -9.5403  -9.1097  -8.9770  -8.5427  -8.5324  -8.4839  -8.4839
    -8.3971  -8.3971  -8.2664  -8.2027  -7.9127  -7.9127  -7.8721  -7.8721
     0.7782   0.7782   0.8709   0.8709   0.9674   1.2081   1.2595   1.4381
     1.6490   1.6490   1.7738   1.8708   1.8708   2.1006   2.1126   2.2606
     2.2736   2.2736   2.5893   2.5893   2.8091   2.9170   3.0182   3.0182
     3.0919   3.0919   3.4448   3.5228   3.5405   3.5405   3.5764   3.5764
     3.6846   3.6846   3.6872   3.8234   3.9626   3.9626   3.9723   4.5206
     4.5206   4.5388   4.5965   4.5965   5.1150   5.1150   5.1261   5.1261
     6.1613   6.2915   6.7667   6.7667   6.7978   6.7978   7.9725   8.2961
     8.9032   8.9032   8.9041   8.9041   9.8507   9.8935   9.8935   9.9559
     9.9559  10.0628  10.2878  10.3046  10.3046  10.3170  10.3170  10.3681
    10.6328  10.6328

     occupation numbers 
     1.0000   1.0000   1.0000   1.0000   1.0000   1.0000   1.0000   1.0000
     1.0000   1.0000   1.0000   1.0000   1.0000   1.0000   1.0000   1.0000
     1.0000   1.0000   1.0000   1.0000   1.0000   1.0000   1.0000   1.0000
     1.0000   1.0000   1.0000   1.0000   1.0000   1.0000   1.0000   1.0000
     1.0000   1.0000   1.0000   1.0000   1.0000   1.0000   1.0000   1.0000
     1.0000   1.0000   1.0000   1.0000   1.0000   1.0000   1.0000   1.0000
     1.0000   1.0000   1.0000   1.0000   1.0000   1.0000   1.0000   1.0000
     1.0000   1.0000   1.0000   1.0000   1.0000   1.0000   1.0000   1.0000
     1.0000   1.0000   1.0000   1.0000   1.0000   1.0000   1.0000   1.0000
     1.0000   1.0000   1.0000   1.0000   1.0000   1.0000   1.0000   1.0000
     1.0000   1.0000   1.0000   1.0000   1.0000   1.0000   1.0000   1.0000
     1.0000   1.0000   1.0000   1.0000   1.0000   1.0000   0.9926   0.0000
     0.0000   0.0000   0.0000   0.0000   0.0000   0.0000   0.0000   0.0000
     0.0000   0.0000   0.0000   0.0000   0.0000   0.0000   0.0000   0.0000
     0.0000   0.0000

          k = 0.0000 0.0000 0.0914 ( 54950 PWs)   bands (ev):

   -48.0018 -48.0018 -47.8975 -47.8975 -47.8975 -47.8975 -24.4849 -24.4849
   -24.2415 -24.2415 -24.2415 -24.2415 -24.2153 -24.2151 -24.0748 -24.0748
   -24.0748 -24.0748 -23.8322 -23.8322 -23.6749 -23.6749 -23.6749 -23.6749
    -9.6399  -9.5451  -9.1157  -8.9692  -8.5458  -8.5300  -8.4836  -8.4836
    -8.3976  -8.3976  -8.2626  -8.2071  -7.9115  -7.9115  -7.8731  -7.8731
     0.7814   0.7814   0.8632   0.8632   0.9876   1.1790   1.2937   1.4406
     1.6647   1.6647   1.7136   1.8700   1.8700   2.0152   2.2161   2.2683
     2.2683   2.2746   2.5819   2.5819   2.8139   2.9108   3.0101   3.0101
     3.0898   3.0898   3.4021   3.5097   3.5097   3.5316   3.6067   3.6067
     3.7113   3.7113   3.7667   3.8326   3.9491   3.9491   3.9646   4.4857
     4.5245   4.5245   4.5945   4.5945   5.1147   5.1147   5.1262   5.1262
     6.1683   6.2849   6.7510   6.7510   6.8112   6.8112   7.9969   8.2786
     8.9025   8.9025   8.9049   8.9049   9.8505   9.8970   9.8970   9.9521
     9.9521  10.0652  10.2878  10.3024  10.3024  10.3182  10.3182  10.3676
    10.5937  10.5937

     occupation numbers 
     1.0000   1.0000   1.0000   1.0000   1.0000   1.0000   1.0000   1.0000
     1.0000   1.0000   1.0000   1.0000   1.0000   1.0000   1.0000   1.0000
     1.0000   1.0000   1.0000   1.0000   1.0000   1.0000   1.0000   1.0000
     1.0000   1.0000   1.0000   1.0000   1.0000   1.0000   1.0000   1.0000
     1.0000   1.0000   1.0000   1.0000   1.0000   1.0000   1.0000   1.0000
     1.0000   1.0000   1.0000   1.0000   1.0000   1.0000   1.0000   1.0000
     1.0000   1.0000   1.0000   1.0000   1.0000   1.0000   1.0000   1.0000
     1.0000   1.0000   1.0000   1.0000   1.0000   1.0000   1.0000   1.0000
     1.0000   1.0000   1.0000   1.0000   1.0000   1.0000   1.0000   1.0000
     1.0000   1.0000   1.0000   1.0000   1.0000   1.0000   1.0000   1.0000
     1.0000   1.0000   1.0000   1.0000   1.0000   1.0000   1.0000   1.0000
     1.0000   1.0000   1.0000   1.0000   1.0000   1.0000   0.9597   0.0000
     0.0000   0.0000   0.0000   0.0000   0.0000   0.0000   0.0000   0.0000
     0.0000   0.0000   0.0000   0.0000   0.0000   0.0000   0.0000   0.0000
     0.0000   0.0000

          k = 0.0000 0.0000 0.1828 ( 55040 PWs)   bands (ev):

   -48.0018 -48.0018 -47.8975 -47.8975 -47.8975 -47.8975 -24.4849 -24.4849
   -24.2415 -24.2415 -24.2415 -24.2415 -24.2152 -24.2151 -24.0748 -24.0748
   -24.0748 -24.0748 -23.8322 -23.8322 -23.6749 -23.6749 -23.6749 -23.6749
    -9.6297  -9.5565  -9.1258  -8.9553  -8.5501  -8.5271  -8.4829  -8.4829
    -8.3985  -8.3985  -8.2519  -8.2190  -7.9090  -7.9090  -7.8754  -7.8754
     0.7902   0.7902   0.8459   0.8459   1.0391   1.1420   1.3314   1.4560
     1.6014   1.6990   1.6990   1.8656   1.8656   1.9457   2.2580   2.2580
     2.2917   2.3142   2.5660   2.5660   2.8259   2.8958   2.9921   2.9921
     3.0891   3.0891   3.3444   3.4836   3.4836   3.5446   3.6293   3.6293
     3.7775   3.7775   3.8552   3.9104   3.9104   3.9386   3.9448   4.3428
     4.5333   4.5333   4.5897   4.5897   5.1140   5.1140   5.1265   5.1265
     6.1815   6.2720   6.7314   6.7314   6.8263   6.8263   8.0593   8.2299
     8.9018   8.9018   8.9058   8.9058   9.8500   9.9064   9.9064   9.9422
     9.9422  10.0700  10.2879  10.2985  10.2985  10.3198  10.3198  10.3665
    10.5588  10.5588

     occupation numbers 
     1.0000   1.0000   1.0000   1.0000   1.0000   1.0000   1.0000   1.0000
     1.0000   1.0000   1.0000   1.0000   1.0000   1.0000   1.0000   1.0000
     1.0000   1.0000   1.0000   1.0000   1.0000   1.0000   1.0000   1.0000
     1.0000   1.0000   1.0000   1.0000   1.0000   1.0000   1.0000   1.0000
     1.0000   1.0000   1.0000   1.0000   1.0000   1.0000   1.0000   1.0000
     1.0000   1.0000   1.0000   1.0000   1.0000   1.0000   1.0000   1.0000
     1.0000   1.0000   1.0000   1.0000   1.0000   1.0000   1.0000   1.0000
     1.0000   1.0000   1.0000   1.0000   1.0000   1.0000   1.0000   1.0000
     1.0000   1.0000   1.0000   1.0000   1.0000   1.0000   1.0000   1.0000
     1.0000   1.0000   1.0000   1.0000   1.0000   1.0000   1.0000   1.0000
     1.0000   1.0000   1.0000   1.0000   1.0000   1.0000   1.0000   1.0000
     1.0000   1.0000   1.0000   1.0000   1.0000   1.0000   0.4931   0.0000
     0.0000   0.0000   0.0000   0.0000   0.0000   0.0000   0.0000   0.0000
     0.0000   0.0000   0.0000   0.0000   0.0000   0.0000   0.0000   0.0000
     0.0000   0.0000

          k = 0.0000 0.0000-0.2743 ( 55022 PWs)   bands (ev):

   -48.0018 -48.0018 -47.8975 -47.8975 -47.8975 -47.8975 -24.4849 -24.4848
   -24.2415 -24.2415 -24.2415 -24.2415 -24.2152 -24.2152 -24.0748 -24.0748
   -24.0748 -24.0748 -23.8322 -23.8322 -23.6749 -23.6749 -23.6749 -23.6749
    -9.6232  -9.5636  -9.1303  -8.9489  -8.5518  -8.5261  -8.4826  -8.4826
    -8.3989  -8.3989  -8.2403  -8.2312  -7.9077  -7.9077  -7.8766  -7.8766
     0.7972   0.7972   0.8347   0.8347   1.0866   1.1091   1.3458   1.4694
     1.5446   1.7184   1.7184   1.8612   1.8612   1.9143   2.2531   2.2531
     2.3140   2.3386   2.5575   2.5575   2.8343   2.8860   2.9829   2.9829
     3.0897   3.0897   3.3215   3.4752   3.4752   3.5500   3.6364   3.6364
     3.8438   3.8438   3.8569   3.8569   3.8717   3.9296   4.1218   4.1691
     4.5385   4.5385   4.5865   4.5865   5.1136   5.1136   5.1266   5.1266
     6.1878   6.2658   6.7235   6.7235   6.8318   6.8318   8.1153   8.1806
     8.9015   8.9015   8.9062   8.9062   9.8498   9.9140   9.9140   9.9343
     9.9343  10.0724  10.2879  10.2967  10.2967  10.3205  10.3205  10.3660
    10.5465  10.5465

     occupation numbers 
     1.0000   1.0000   1.0000   1.0000   1.0000   1.0000   1.0000   1.0000
     1.0000   1.0000   1.0000   1.0000   1.0000   1.0000   1.0000   1.0000
     1.0000   1.0000   1.0000   1.0000   1.0000   1.0000   1.0000   1.0000
     1.0000   1.0000   1.0000   1.0000   1.0000   1.0000   1.0000   1.0000
     1.0000   1.0000   1.0000   1.0000   1.0000   1.0000   1.0000   1.0000
     1.0000   1.0000   1.0000   1.0000   1.0000   1.0000   1.0000   1.0000
     1.0000   1.0000   1.0000   1.0000   1.0000   1.0000   1.0000   1.0000
     1.0000   1.0000   1.0000   1.0000   1.0000   1.0000   1.0000   1.0000
     1.0000   1.0000   1.0000   1.0000   1.0000   1.0000   1.0000   1.0000
     1.0000   1.0000   1.0000   1.0000   1.0000   1.0000   1.0000   1.0000
     1.0000   1.0000   1.0000   1.0000   1.0000   1.0000   1.0000   1.0000
     1.0000   1.0000   1.0000   1.0000   1.0000   1.0000   0.0545   0.0003
     0.0000   0.0000   0.0000   0.0000   0.0000   0.0000   0.0000   0.0000
     0.0000   0.0000   0.0000   0.0000   0.0000   0.0000   0.0000   0.0000
     0.0000   0.0000

          k =-0.0962 0.1667-0.0305 ( 54982 PWs)   bands (ev):

   -48.0015 -48.0015 -47.8979 -47.8979 -47.8975 -47.8975 -24.4786 -24.4785
   -24.2403 -24.2403 -24.2367 -24.2367 -24.2136 -24.2134 -24.0767 -24.0767
   -24.0750 -24.0750 -23.8356 -23.8356 -23.6835 -23.6835 -23.6767 -23.6767
    -9.6137  -9.5226  -9.0875  -8.9536  -8.5723  -8.5533  -8.4893  -8.4811
    -8.4205  -8.3914  -8.2590  -8.1929  -7.9414  -7.9179  -7.9007  -7.8762
     0.8688   0.8893   0.9032   0.9567   1.1553   1.2414   1.2978   1.4872
     1.6232   1.6749   1.8000   1.8831   1.9957   2.0600   2.1532   2.2393
     2.2986   2.3237   2.5742   2.5996   2.8441   2.9285   2.9483   2.9714
     3.0304   3.1092   3.2950   3.3277   3.4407   3.4701   3.5687   3.6505
     3.6546   3.7190   3.7876   3.8248   3.8742   3.8925   3.9730   4.3522
     4.3767   4.5000   4.5895   4.5960   4.8872   4.9373   5.0629   5.1071
     6.1241   6.2181   6.7800   6.7848   6.8023   6.8456   7.9393   8.2600
     8.9147   8.9244   8.9317   8.9539   9.7599   9.8155   9.8410   9.8682
     9.9068   9.9667  10.0869  10.1483  10.2573  10.3037  10.3258  10.3446
    10.6689  10.7125

     occupation numbers 
     1.0000   1.0000   1.0000   1.0000   1.0000   1.0000   1.0000   1.0000
     1.0000   1.0000   1.0000   1.0000   1.0000   1.0000   1.0000   1.0000
     1.0000   1.0000   1.0000   1.0000   1.0000   1.0000   1.0000   1.0000
     1.0000   1.0000   1.0000   1.0000   1.0000   1.0000   1.0000   1.0000
     1.0000   1.0000   1.0000   1.0000   1.0000   1.0000   1.0000   1.0000
     1.0000   1.0000   1.0000   1.0000   1.0000   1.0000   1.0000   1.0000
     1.0000   1.0000   1.0000   1.0000   1.0000   1.0000   1.0000   1.0000
     1.0000   1.0000   1.0000   1.0000   1.0000   1.0000   1.0000   1.0000
     1.0000   1.0000   1.0000   1.0000   1.0000   1.0000   1.0000   1.0000
     1.0000   1.0000   1.0000   1.0000   1.0000   1.0000   1.0000   1.0000
     1.0000   1.0000   1.0000   1.0000   1.0000   1.0000   1.0000   1.0000
     1.0000   1.0000   1.0000   1.0000   1.0000   1.0000   0.9996   0.0000
     0.0000   0.0000   0.0000   0.0000   0.0000   0.0000   0.0000   0.0000
     0.0000   0.0000   0.0000   0.0000   0.0000   0.0000   0.0000   0.0000
     0.0000   0.0000

          k =-0.0962 0.1667 0.0609 ( 55003 PWs)   bands (ev):

   -48.0015 -48.0015 -47.8979 -47.8979 -47.8975 -47.8975 -24.4786 -24.4785
   -24.2403 -24.2403 -24.2367 -24.2367 -24.2136 -24.2135 -24.0767 -24.0767
   -24.0750 -24.0750 -23.8356 -23.8356 -23.6835 -23.6835 -23.6767 -23.6767
    -9.6125  -9.5239  -9.0895  -8.9512  -8.5741  -8.5510  -8.4902  -8.4807
    -8.4202  -8.3921  -8.2571  -8.1948  -7.9427  -7.9162  -7.8994  -7.8777
     0.8734   0.8890   0.9028   0.9495   1.1537   1.2559   1.2983   1.4869
     1.6118   1.6679   1.7918   1.9162   1.9618   2.0705   2.1489   2.2266
     2.3077   2.3533   2.5687   2.5975   2.8493   2.8925   2.9479   3.0033
     3.0366   3.1001   3.2852   3.3398   3.3884   3.4903   3.5567   3.6316
     3.6977   3.7417   3.7950   3.8158   3.8698   3.8978   3.9690   4.3449
     4.4092   4.4964   4.5560   4.5984   4.8898   4.9375   5.0585   5.1124
     6.1248   6.2169   6.7616   6.7946   6.8191   6.8366   7.9463   8.2553
     8.9156   8.9230   8.9344   8.9508   9.7608   9.8157   9.8397   9.8687
     9.9061   9.9618  10.0844  10.1544  10.2606  10.3050  10.3209  10.3407
    10.6378  10.7483

     occupation numbers 
     1.0000   1.0000   1.0000   1.0000   1.0000   1.0000   1.0000   1.0000
     1.0000   1.0000   1.0000   1.0000   1.0000   1.0000   1.0000   1.0000
     1.0000   1.0000   1.0000   1.0000   1.0000   1.0000   1.0000   1.0000
     1.0000   1.0000   1.0000   1.0000   1.0000   1.0000   1.0000   1.0000
     1.0000   1.0000   1.0000   1.0000   1.0000   1.0000   1.0000   1.0000
     1.0000   1.0000   1.0000   1.0000   1.0000   1.0000   1.0000   1.0000
     1.0000   1.0000   1.0000   1.0000   1.0000   1.0000   1.0000   1.0000
     1.0000   1.0000   1.0000   1.0000   1.0000   1.0000   1.0000   1.0000
     1.0000   1.0000   1.0000   1.0000   1.0000   1.0000   1.0000   1.0000
     1.0000   1.0000   1.0000   1.0000   1.0000   1.0000   1.0000   1.0000
     1.0000   1.0000   1.0000   1.0000   1.0000   1.0000   1.0000   1.0000
     1.0000   1.0000   1.0000   1.0000   1.0000   1.0000   0.9993   0.0000
     0.0000   0.0000   0.0000   0.0000   0.0000   0.0000   0.0000   0.0000
     0.0000   0.0000   0.0000   0.0000   0.0000   0.0000   0.0000   0.0000
     0.0000   0.0000

          k =-0.0962 0.1667 0.1524 ( 54975 PWs)   bands (ev):

   -48.0015 -48.0015 -47.8979 -47.8979 -47.8975 -47.8975 -24.4786 -24.4785
   -24.2403 -24.2403 -24.2367 -24.2367 -24.2136 -24.2135 -24.0767 -24.0766
   -24.0750 -24.0750 -23.8356 -23.8356 -23.6835 -23.6835 -23.6767 -23.6767
    -9.6053  -9.5316  -9.0997  -8.9385  -8.5751  -8.5511  -8.4902  -8.4802
    -8.4209  -8.3928  -8.2471  -8.2053  -7.9417  -7.9142  -7.9004  -7.8794
     0.8825   0.8840   0.9204   0.9307   1.1525   1.2498   1.3324   1.4854
     1.6390   1.6408   1.7820   1.9049   1.9106   2.0067   2.2211   2.2274
     2.3413   2.3881   2.5624   2.5870   2.8463   2.8622   2.9378   3.0227
     3.0260   3.0922   3.2629   3.3385   3.3655   3.5019   3.5438   3.6639
     3.7022   3.7781   3.8128   3.8275   3.9012   3.9427   3.9433   4.3099
     4.4373   4.4749   4.4966   4.5977   4.9016   4.9306   5.0610   5.1104
     6.1320   6.2083   6.7458   6.7839   6.8313   6.8448   7.9910   8.2207
     8.9175   8.9210   8.9333   8.9506   9.7669   9.8065   9.8471   9.8677
     9.8976   9.9705  10.0821  10.1559  10.2684  10.3043  10.3045  10.3405
    10.6205  10.7710

     occupation numbers 
     1.0000   1.0000   1.0000   1.0000   1.0000   1.0000   1.0000   1.0000
     1.0000   1.0000   1.0000   1.0000   1.0000   1.0000   1.0000   1.0000
     1.0000   1.0000   1.0000   1.0000   1.0000   1.0000   1.0000   1.0000
     1.0000   1.0000   1.0000   1.0000   1.0000   1.0000   1.0000   1.0000
     1.0000   1.0000   1.0000   1.0000   1.0000   1.0000   1.0000   1.0000
     1.0000   1.0000   1.0000   1.0000   1.0000   1.0000   1.0000   1.0000
     1.0000   1.0000   1.0000   1.0000   1.0000   1.0000   1.0000   1.0000
     1.0000   1.0000   1.0000   1.0000   1.0000   1.0000   1.0000   1.0000
     1.0000   1.0000   1.0000   1.0000   1.0000   1.0000   1.0000   1.0000
     1.0000   1.0000   1.0000   1.0000   1.0000   1.0000   1.0000   1.0000
     1.0000   1.0000   1.0000   1.0000   1.0000   1.0000   1.0000   1.0000
     1.0000   1.0000   1.0000   1.0000   1.0000   1.0000   0.9721   0.0000
     0.0000   0.0000   0.0000   0.0000   0.0000   0.0000   0.0000   0.0000
     0.0000   0.0000   0.0000   0.0000   0.0000   0.0000   0.0000   0.0000
     0.0000   0.0000

          k =-0.0962 0.1667-0.3047 ( 54959 PWs)   bands (ev):

   -48.0015 -48.0015 -47.8979 -47.8979 -47.8975 -47.8975 -24.4786 -24.4785
   -24.2403 -24.2403 -24.2367 -24.2367 -24.2136 -24.2135 -24.0767 -24.0766
   -24.0750 -24.0750 -23.8356 -23.8356 -23.6835 -23.6835 -23.6767 -23.6767
    -9.5980  -9.5393  -9.1071  -8.9291  -8.5744  -8.5532  -8.4894  -8.4802
    -8.4220  -8.3928  -8.2314  -8.2213  -7.9391  -7.9141  -7.9028  -7.8796
     0.8805   0.8924   0.9166   0.9341   1.1534   1.2403   1.3599   1.4763
     1.6244   1.6919   1.7610   1.8448   1.9040   1.9863   2.2352   2.2423
     2.3591   2.4161   2.5613   2.5785   2.8251   2.8721   2.9262   3.0022
     3.0318   3.0952   3.2527   3.3213   3.3724   3.5106   3.5160   3.6994
     3.7549   3.7963   3.8035   3.8243   3.8993   3.9109   4.0709   4.2159
     4.4044   4.4733   4.5008   4.5943   4.9146   4.9194   5.0694   5.1013
     6.1380   6.2013   6.7416   6.7692   6.8337   6.8564   8.0434   8.1763
     8.9181   8.9210   8.9297   8.9533   9.7748   9.7942   9.8605   9.8684
     9.8849   9.9823  10.0819  10.1517  10.2751  10.2907  10.3023  10.3441
    10.6206  10.7408

     occupation numbers 
     1.0000   1.0000   1.0000   1.0000   1.0000   1.0000   1.0000   1.0000
     1.0000   1.0000   1.0000   1.0000   1.0000   1.0000   1.0000   1.0000
     1.0000   1.0000   1.0000   1.0000   1.0000   1.0000   1.0000   1.0000
     1.0000   1.0000   1.0000   1.0000   1.0000   1.0000   1.0000   1.0000
     1.0000   1.0000   1.0000   1.0000   1.0000   1.0000   1.0000   1.0000
     1.0000   1.0000   1.0000   1.0000   1.0000   1.0000   1.0000   1.0000
     1.0000   1.0000   1.0000   1.0000   1.0000   1.0000   1.0000   1.0000
     1.0000   1.0000   1.0000   1.0000   1.0000   1.0000   1.0000   1.0000
     1.0000   1.0000   1.0000   1.0000   1.0000   1.0000   1.0000   1.0000
     1.0000   1.0000   1.0000   1.0000   1.0000   1.0000   1.0000   1.0000
     1.0000   1.0000   1.0000   1.0000   1.0000   1.0000   1.0000   1.0000
     1.0000   1.0000   1.0000   1.0000   1.0000   1.0000   0.6667   0.0004
     0.0000   0.0000   0.0000   0.0000   0.0000   0.0000   0.0000   0.0000
     0.0000   0.0000   0.0000   0.0000   0.0000   0.0000   0.0000   0.0000
     0.0000   0.0000

          k =-0.0962 0.1667-0.2133 ( 54965 PWs)   bands (ev):

   -48.0015 -48.0015 -47.8979 -47.8979 -47.8975 -47.8975 -24.4786 -24.4785
   -24.2403 -24.2403 -24.2367 -24.2367 -24.2136 -24.2135 -24.0767 -24.0766
   -24.0750 -24.0750 -23.8356 -23.8356 -23.6835 -23.6835 -23.6767 -23.6767
    -9.5998  -9.5374  -9.1056  -8.9309  -8.5725  -8.5555  -8.4886  -8.4806
    -8.4223  -8.3922  -8.2384  -8.2142  -7.9375  -7.9159  -7.9043  -7.8780
     0.8814   0.8815   0.9300   0.9333   1.1573   1.2276   1.3553   1.4717
     1.6303   1.7445   1.7721   1.7882   1.8964   2.0105   2.2167   2.2536
     2.3411   2.4152   2.5667   2.5767   2.8379   2.8624   2.9299   3.0022
     3.0230   3.1008   3.2722   3.3067   3.3988   3.5118   3.5134   3.6855
     3.7403   3.7929   3.8050   3.8294   3.8784   3.9334   4.0597   4.2159
     4.3715   4.5049   4.5180   4.5914   4.9040   4.9279   5.0812   5.0885
     6.1383   6.2016   6.7510   6.7636   6.8261   6.8613   8.0297   8.1878
     8.9165   8.9232   8.9277   8.9556   9.7714   9.7974   9.8627   9.8679
     9.8847   9.9864  10.0842  10.1458  10.2652  10.3012  10.3019  10.3476
    10.6381  10.7224

     occupation numbers 
     1.0000   1.0000   1.0000   1.0000   1.0000   1.0000   1.0000   1.0000
     1.0000   1.0000   1.0000   1.0000   1.0000   1.0000   1.0000   1.0000
     1.0000   1.0000   1.0000   1.0000   1.0000   1.0000   1.0000   1.0000
     1.0000   1.0000   1.0000   1.0000   1.0000   1.0000   1.0000   1.0000
     1.0000   1.0000   1.0000   1.0000   1.0000   1.0000   1.0000   1.0000
     1.0000   1.0000   1.0000   1.0000   1.0000   1.0000   1.0000   1.0000
     1.0000   1.0000   1.0000   1.0000   1.0000   1.0000   1.0000   1.0000
     1.0000   1.0000   1.0000   1.0000   1.0000   1.0000   1.0000   1.0000
     1.0000   1.0000   1.0000   1.0000   1.0000   1.0000   1.0000   1.0000
     1.0000   1.0000   1.0000   1.0000   1.0000   1.0000   1.0000   1.0000
     1.0000   1.0000   1.0000   1.0000   1.0000   1.0000   1.0000   1.0000
     1.0000   1.0000   1.0000   1.0000   1.0000   1.0000   0.7936   0.0001
     0.0000   0.0000   0.0000   0.0000   0.0000   0.0000   0.0000   0.0000
     0.0000   0.0000   0.0000   0.0000   0.0000   0.0000   0.0000   0.0000
     0.0000   0.0000

          k =-0.0962 0.1667-0.1219 ( 54999 PWs)   bands (ev):

   -48.0015 -48.0015 -47.8979 -47.8979 -47.8975 -47.8975 -24.4786 -24.4785
   -24.2403 -24.2403 -24.2367 -24.2367 -24.2136 -24.2135 -24.0767 -24.0766
   -24.0750 -24.0750 -23.8356 -23.8356 -23.6835 -23.6835 -23.6767 -23.6767
    -9.6081  -9.5286  -9.0964  -8.9427  -8.5713  -8.5557  -8.4885  -8.4811
    -8.4216  -8.3915  -8.2522  -8.2000  -7.9388  -7.9177  -7.9031  -7.8764
     0.8714   0.8842   0.9196   0.9481   1.1584   1.2238   1.3258   1.4800
     1.6605   1.6754   1.7997   1.8265   1.9512   2.0205   2.2032   2.2514
     2.3068   2.3649   2.5734   2.5882   2.8487   2.8825   2.9405   2.9982
     3.0165   3.1070   3.2951   3.3092   3.4358   3.4913   3.5527   3.6438
     3.6862   3.7380   3.7938   3.8651   3.8846   3.9272   3.9585   4.3139
     4.3594   4.5043   4.5660   4.5924   4.8933   4.9340   5.0733   5.0961
     6.1314   6.2100   6.7699   6.7702   6.8106   6.8571   7.9738   8.2336
     8.9151   8.9245   8.9286   8.9560   9.7639   9.8083   9.8500   9.8668
     9.8987   9.9794  10.0870  10.1438  10.2585  10.3018  10.3173  10.3480
    10.6689  10.7135

     occupation numbers 
     1.0000   1.0000   1.0000   1.0000   1.0000   1.0000   1.0000   1.0000
     1.0000   1.0000   1.0000   1.0000   1.0000   1.0000   1.0000   1.0000
     1.0000   1.0000   1.0000   1.0000   1.0000   1.0000   1.0000   1.0000
     1.0000   1.0000   1.0000   1.0000   1.0000   1.0000   1.0000   1.0000
     1.0000   1.0000   1.0000   1.0000   1.0000   1.0000   1.0000   1.0000
     1.0000   1.0000   1.0000   1.0000   1.0000   1.0000   1.0000   1.0000
     1.0000   1.0000   1.0000   1.0000   1.0000   1.0000   1.0000   1.0000
     1.0000   1.0000   1.0000   1.0000   1.0000   1.0000   1.0000   1.0000
     1.0000   1.0000   1.0000   1.0000   1.0000   1.0000   1.0000   1.0000
     1.0000   1.0000   1.0000   1.0000   1.0000   1.0000   1.0000   1.0000
     1.0000   1.0000   1.0000   1.0000   1.0000   1.0000   1.0000   1.0000
     1.0000   1.0000   1.0000   1.0000   1.0000   1.0000   0.9918   0.0000
     0.0000   0.0000   0.0000   0.0000   0.0000   0.0000   0.0000   0.0000
     0.0000   0.0000   0.0000   0.0000   0.0000   0.0000   0.0000   0.0000
     0.0000   0.0000

          k =-0.1925 0.3333-0.0609 ( 54997 PWs)   bands (ev):

   -48.0009 -48.0009 -47.8985 -47.8985 -47.8975 -47.8975 -24.4657 -24.4657
   -24.2376 -24.2376 -24.2268 -24.2267 -24.2102 -24.2101 -24.0806 -24.0805
   -24.0755 -24.0754 -23.8427 -23.8427 -23.7013 -23.7013 -23.6800 -23.6800
    -9.5477  -9.4901  -9.0160  -8.8885  -8.6844  -8.5982  -8.4976  -8.4754
    -8.4628  -8.3799  -8.2397  -8.1758  -7.9924  -7.9641  -7.9280  -7.8849
     1.0422   1.0776   1.1267   1.1313   1.2849   1.3086   1.5912   1.6670
     1.7163   1.8105   1.9043   1.9075   2.0633   2.1609   2.1840   2.2270
     2.2869   2.3852   2.4394   2.5425   2.7730   2.8102   2.8865   3.0035
     3.0280   3.0357   3.1247   3.1633   3.2051   3.3664   3.3769   3.6013
     3.6089   3.6481   3.7166   3.7621   3.8918   3.9425   4.0124   4.0306
     4.1451   4.4299   4.4526   4.5285   4.5457   4.6042   5.0068   5.0414
     6.0547   6.0887   6.7910   6.7980   6.8435   6.9149   7.8534   8.1556
     8.9381   8.9585   9.0008   9.0487   9.5658   9.6568   9.6971   9.7324
     9.7673   9.8205   9.9852  10.0554  10.2516  10.2965  10.3157  10.3854
    10.6202  10.6810

     occupation numbers 
     1.0000   1.0000   1.0000   1.0000   1.0000   1.0000   1.0000   1.0000
     1.0000   1.0000   1.0000   1.0000   1.0000   1.0000   1.0000   1.0000
     1.0000   1.0000   1.0000   1.0000   1.0000   1.0000   1.0000   1.0000
     1.0000   1.0000   1.0000   1.0000   1.0000   1.0000   1.0000   1.0000
     1.0000   1.0000   1.0000   1.0000   1.0000   1.0000   1.0000   1.0000
     1.0000   1.0000   1.0000   1.0000   1.0000   1.0000   1.0000   1.0000
     1.0000   1.0000   1.0000   1.0000   1.0000   1.0000   1.0000   1.0000
     1.0000   1.0000   1.0000   1.0000   1.0000   1.0000   1.0000   1.0000
     1.0000   1.0000   1.0000   1.0000   1.0000   1.0000   1.0000   1.0000
     1.0000   1.0000   1.0000   1.0000   1.0000   1.0000   1.0000   1.0000
     1.0000   1.0000   1.0000   1.0000   1.0000   1.0000   1.0000   1.0000
     1.0000   1.0000   1.0000   1.0000   1.0000   1.0000   1.0000   0.0031
     0.0000   0.0000   0.0000   0.0000   0.0000   0.0000   0.0000   0.0000
     0.0000   0.0000   0.0000   0.0000   0.0000   0.0000   0.0000   0.0000
     0.0000   0.0000

          k =-0.1925 0.3333 0.0305 ( 55005 PWs)   bands (ev):

   -48.0009 -48.0009 -47.8985 -47.8985 -47.8975 -47.8975 -24.4657 -24.4657
   -24.2376 -24.2376 -24.2268 -24.2267 -24.2102 -24.2101 -24.0806 -24.0805
   -24.0755 -24.0754 -23.8427 -23.8427 -23.7013 -23.7013 -23.6800 -23.6800
    -9.5483  -9.4897  -9.0131  -8.8919  -8.6847  -8.5976  -8.4977  -8.4751
    -8.4617  -8.3803  -8.2404  -8.1765  -7.9933  -7.9624  -7.9270  -7.8859
     1.0288   1.0781   1.1353   1.1423   1.2439   1.3425   1.6027   1.6302
     1.7093   1.7961   1.9343   1.9524   2.0716   2.1430   2.1768   2.2385
     2.3035   2.3657   2.4309   2.5486   2.7479   2.8229   2.9056   2.9917
     2.9943   3.0559   3.1572   3.1607   3.1980   3.3439   3.3742   3.5754
     3.5994   3.6557   3.6911   3.7709   3.9008   3.9455   4.0091   4.0710
     4.1627   4.4081   4.4316   4.5299   4.5481   4.6251   4.9924   5.0582
     6.0487   6.0940   6.7806   6.8081   6.8533   6.9057   7.8496   8.1594
     8.9380   8.9574   9.0090   9.0402   9.5736   9.6373   9.7020   9.7254
     9.7685   9.8200   9.9869  10.0564  10.2563  10.2888  10.2989  10.4022
    10.6353  10.6749

     occupation numbers 
     1.0000   1.0000   1.0000   1.0000   1.0000   1.0000   1.0000   1.0000
     1.0000   1.0000   1.0000   1.0000   1.0000   1.0000   1.0000   1.0000
     1.0000   1.0000   1.0000   1.0000   1.0000   1.0000   1.0000   1.0000
     1.0000   1.0000   1.0000   1.0000   1.0000   1.0000   1.0000   1.0000
     1.0000   1.0000   1.0000   1.0000   1.0000   1.0000   1.0000   1.0000
     1.0000   1.0000   1.0000   1.0000   1.0000   1.0000   1.0000   1.0000
     1.0000   1.0000   1.0000   1.0000   1.0000   1.0000   1.0000   1.0000
     1.0000   1.0000   1.0000   1.0000   1.0000   1.0000   1.0000   1.0000
     1.0000   1.0000   1.0000   1.0000   1.0000   1.0000   1.0000   1.0000
     1.0000   1.0000   1.0000   1.0000   1.0000   1.0000   1.0000   1.0000
     1.0000   1.0000   1.0000   1.0000   1.0000   1.0000   1.0000   1.0000
     1.0000   1.0000   1.0000   1.0000   1.0000   1.0000   1.0000   0.0022
     0.0000   0.0000   0.0000   0.0000   0.0000   0.0000   0.0000   0.0000
     0.0000   0.0000   0.0000   0.0000   0.0000   0.0000   0.0000   0.0000
     0.0000   0.0000

          k =-0.1925 0.3333 0.1219 ( 54980 PWs)   bands (ev):

   -48.0009 -48.0009 -47.8985 -47.8985 -47.8975 -47.8975 -24.4657 -24.4657
   -24.2376 -24.2376 -24.2268 -24.2267 -24.2102 -24.2101 -24.0805 -24.0805
   -24.0755 -24.0754 -23.8427 -23.8427 -23.7013 -23.7013 -23.6800 -23.6800
    -9.5453  -9.4924  -9.0197  -8.8848  -8.6853  -8.5972  -8.4983  -8.4750
    -8.4612  -8.3805  -8.2342  -8.1835  -7.9946  -7.9609  -7.9265  -7.8862
     1.0241   1.0823   1.1291   1.1644   1.2110   1.3612   1.6151   1.6326
     1.6897   1.8024   1.9264   1.9517   2.0692   2.1714   2.1766   2.2015
     2.3039   2.3829   2.4340   2.6125   2.6791   2.8395   2.9270   2.9556
     2.9799   3.0829   3.1256   3.1649   3.2031   3.3133   3.4234   3.5178
     3.6294   3.6522   3.6826   3.7667   3.9241   3.9547   3.9959   4.0717
     4.2292   4.3442   4.4354   4.5427   4.5475   4.6210   4.9865   5.0659
     6.0475   6.0941   6.7729   6.8145   6.8612   6.8973   7.8672   8.1461
     8.9406   8.9540   9.0122   9.0334   9.5714   9.6206   9.6913   9.7454
     9.7696   9.8351   9.9664  10.0676  10.2640  10.2797  10.2950  10.4054
    10.6159  10.6919

     occupation numbers 
     1.0000   1.0000   1.0000   1.0000   1.0000   1.0000   1.0000   1.0000
     1.0000   1.0000   1.0000   1.0000   1.0000   1.0000   1.0000   1.0000
     1.0000   1.0000   1.0000   1.0000   1.0000   1.0000   1.0000   1.0000
     1.0000   1.0000   1.0000   1.0000   1.0000   1.0000   1.0000   1.0000
     1.0000   1.0000   1.0000   1.0000   1.0000   1.0000   1.0000   1.0000
     1.0000   1.0000   1.0000   1.0000   1.0000   1.0000   1.0000   1.0000
     1.0000   1.0000   1.0000   1.0000   1.0000   1.0000   1.0000   1.0000
     1.0000   1.0000   1.0000   1.0000   1.0000   1.0000   1.0000   1.0000
     1.0000   1.0000   1.0000   1.0000   1.0000   1.0000   1.0000   1.0000
     1.0000   1.0000   1.0000   1.0000   1.0000   1.0000   1.0000   1.0000
     1.0000   1.0000   1.0000   1.0000   1.0000   1.0000   1.0000   1.0000
     1.0000   1.0000   1.0000   1.0000   1.0000   1.0000   1.0000   0.0067
     0.0000   0.0000   0.0000   0.0000   0.0000   0.0000   0.0000   0.0000
     0.0000   0.0000   0.0000   0.0000   0.0000   0.0000   0.0000   0.0000
     0.0000   0.0000

          k =-0.1925 0.3333-0.3352 ( 54982 PWs)   bands (ev):

   -48.0009 -48.0009 -47.8985 -47.8985 -47.8975 -47.8975 -24.4657 -24.4657
   -24.2376 -24.2376 -24.2268 -24.2267 -24.2102 -24.2101 -24.0806 -24.0805
   -24.0755 -24.0754 -23.8427 -23.8427 -23.7013 -23.7013 -23.6800 -23.6800
    -9.5414  -9.4958  -9.0280  -8.8756  -8.6855  -8.5975  -8.4988  -8.4752
    -8.4619  -8.3802  -8.2246  -8.1925  -7.9949  -7.9609  -7.9272  -7.8857
     1.0311   1.0881   1.1169   1.1730   1.1994   1.3638   1.6252   1.6718
     1.6760   1.8132   1.8974   1.9038   2.0801   2.1313   2.1813   2.2098
     2.3122   2.4191   2.4468   2.6274   2.6630   2.8430   2.9204   2.9523
     2.9740   3.0795   3.1122   3.1446   3.2207   3.2984   3.4783   3.5092
     3.6125   3.6723   3.6966   3.7441   3.9521   3.9613   3.9851   4.0386
     4.2632   4.3278   4.4377   4.5442   4.5580   4.5940   4.9900   5.0618
     6.0516   6.0897   6.7708   6.8154   6.8553   6.9020   7.8918   8.1258
     8.9447   8.9500   9.0033   9.0389   9.5584   9.6266   9.6841   9.7657
     9.7716   9.8481   9.9454  10.0747  10.2631  10.2822  10.3059  10.3941
    10.5928  10.7035

     occupation numbers 
     1.0000   1.0000   1.0000   1.0000   1.0000   1.0000   1.0000   1.0000
     1.0000   1.0000   1.0000   1.0000   1.0000   1.0000   1.0000   1.0000
     1.0000   1.0000   1.0000   1.0000   1.0000   1.0000   1.0000   1.0000
     1.0000   1.0000   1.0000   1.0000   1.0000   1.0000   1.0000   1.0000
     1.0000   1.0000   1.0000   1.0000   1.0000   1.0000   1.0000   1.0000
     1.0000   1.0000   1.0000   1.0000   1.0000   1.0000   1.0000   1.0000
     1.0000   1.0000   1.0000   1.0000   1.0000   1.0000   1.0000   1.0000
     1.0000   1.0000   1.0000   1.0000   1.0000   1.0000   1.0000   1.0000
     1.0000   1.0000   1.0000   1.0000   1.0000   1.0000   1.0000   1.0000
     1.0000   1.0000   1.0000   1.0000   1.0000   1.0000   1.0000   1.0000
     1.0000   1.0000   1.0000   1.0000   1.0000   1.0000   1.0000   1.0000
     1.0000   1.0000   1.0000   1.0000   1.0000   1.0000   1.0000   0.0289
     0.0000   0.0000   0.0000   0.0000   0.0000   0.0000   0.0000   0.0000
     0.0000   0.0000   0.0000   0.0000   0.0000   0.0000   0.0000   0.0000
     0.0000   0.0000

          k =-0.1925 0.3333-0.2438 ( 55002 PWs)   bands (ev):

   -48.0009 -48.0009 -47.8985 -47.8985 -47.8975 -47.8975 -24.4657 -24.4657
   -24.2376 -24.2376 -24.2268 -24.2267 -24.2102 -24.2101 -24.0806 -24.0805
   -24.0755 -24.0754 -23.8427 -23.8427 -23.7013 -23.7013 -23.6800 -23.6800
    -9.5407  -9.4963  -9.0303  -8.8728  -8.6851  -8.5982  -8.4987  -8.4755
    -8.4630  -8.3798  -8.2238  -8.1919  -7.9941  -7.9624  -7.9283  -7.8848
     1.0404   1.0885   1.1122   1.1611   1.2195   1.3503   1.6123   1.6763
     1.7331   1.8326   1.8353   1.8936   2.0557   2.1267   2.1870   2.2114
     2.2931   2.4430   2.4555   2.6447   2.6525   2.8260   2.9287   2.9703
     2.9853   3.0468   3.1168   3.1346   3.2278   3.3154   3.4574   3.5430
     3.6331   3.6995   3.7037   3.7134   3.9531   3.9631   3.9935   4.0048
     4.1922   4.4111   4.4361   4.5417   4.5544   4.5731   5.0023   5.0472
     6.0600   6.0819   6.7754   6.8111   6.8448   6.9119   7.8969   8.1207
     8.9437   8.9521   8.9958   9.0468   9.5531   9.6417   9.6826   9.7701
     9.7724   9.8486   9.9428  10.0739  10.2562  10.2922  10.3259  10.3745
    10.5833  10.7035

     occupation numbers 
     1.0000   1.0000   1.0000   1.0000   1.0000   1.0000   1.0000   1.0000
     1.0000   1.0000   1.0000   1.0000   1.0000   1.0000   1.0000   1.0000
     1.0000   1.0000   1.0000   1.0000   1.0000   1.0000   1.0000   1.0000
     1.0000   1.0000   1.0000   1.0000   1.0000   1.0000   1.0000   1.0000
     1.0000   1.0000   1.0000   1.0000   1.0000   1.0000   1.0000   1.0000
     1.0000   1.0000   1.0000   1.0000   1.0000   1.0000   1.0000   1.0000
     1.0000   1.0000   1.0000   1.0000   1.0000   1.0000   1.0000   1.0000
     1.0000   1.0000   1.0000   1.0000   1.0000   1.0000   1.0000   1.0000
     1.0000   1.0000   1.0000   1.0000   1.0000   1.0000   1.0000   1.0000
     1.0000   1.0000   1.0000   1.0000   1.0000   1.0000   1.0000   1.0000
     1.0000   1.0000   1.0000   1.0000   1.0000   1.0000   1.0000   1.0000
     1.0000   1.0000   1.0000   1.0000   1.0000   1.0000   1.0000   0.0397
     0.0000   0.0000   0.0000   0.0000   0.0000   0.0000   0.0000   0.0000
     0.0000   0.0000   0.0000   0.0000   0.0000   0.0000   0.0000   0.0000
     0.0000   0.0000

          k =-0.1925 0.3333-0.1524 ( 54995 PWs)   bands (ev):

   -48.0009 -48.0009 -47.8985 -47.8985 -47.8975 -47.8975 -24.4657 -24.4657
   -24.2376 -24.2376 -24.2268 -24.2267 -24.2102 -24.2101 -24.0806 -24.0805
   -24.0755 -24.0754 -23.8427 -23.8427 -23.7013 -23.7013 -23.6800 -23.6800
    -9.5442  -9.4932  -9.0248  -8.8788  -8.6846  -8.5985  -8.4981  -8.4756
    -8.4634  -8.3797  -8.2327  -8.1823  -7.9928  -7.9641  -7.9287  -7.8844
     1.0462   1.0817   1.1209   1.1377   1.2619   1.3240   1.5911   1.6949
     1.7301   1.8332   1.8473   1.8907   2.0388   2.1755   2.1892   2.2087
     2.2557   2.4290   2.4512   2.5952   2.7139   2.8104   2.9151   2.9995
     3.0202   3.0321   3.0977   3.1527   3.2174   3.3519   3.4156   3.5646
     3.6433   3.6880   3.7020   3.7432   3.9186   3.9455   4.0056   4.0104
     4.1487   4.4321   4.4614   4.5349   4.5425   4.5794   5.0209   5.0268
     6.0627   6.0803   6.7853   6.8027   6.8400   6.9173   7.8759   8.1374
     8.9402   8.9565   8.9953   9.0510   9.5573   9.6557   9.6870   9.7545
     9.7697   9.8359   9.9621  10.0658  10.2518  10.2980  10.3347  10.3661
    10.5944  10.6949

     occupation numbers 
     1.0000   1.0000   1.0000   1.0000   1.0000   1.0000   1.0000   1.0000
     1.0000   1.0000   1.0000   1.0000   1.0000   1.0000   1.0000   1.0000
     1.0000   1.0000   1.0000   1.0000   1.0000   1.0000   1.0000   1.0000
     1.0000   1.0000   1.0000   1.0000   1.0000   1.0000   1.0000   1.0000
     1.0000   1.0000   1.0000   1.0000   1.0000   1.0000   1.0000   1.0000
     1.0000   1.0000   1.0000   1.0000   1.0000   1.0000   1.0000   1.0000
     1.0000   1.0000   1.0000   1.0000   1.0000   1.0000   1.0000   1.0000
     1.0000   1.0000   1.0000   1.0000   1.0000   1.0000   1.0000   1.0000
     1.0000   1.0000   1.0000   1.0000   1.0000   1.0000   1.0000   1.0000
     1.0000   1.0000   1.0000   1.0000   1.0000   1.0000   1.0000   1.0000
     1.0000   1.0000   1.0000   1.0000   1.0000   1.0000   1.0000   1.0000
     1.0000   1.0000   1.0000   1.0000   1.0000   1.0000   1.0000   0.0129
     0.0000   0.0000   0.0000   0.0000   0.0000   0.0000   0.0000   0.0000
     0.0000   0.0000   0.0000   0.0000   0.0000   0.0000   0.0000   0.0000
     0.0000   0.0000

          k = 0.2887-0.5000 0.0914 ( 55006 PWs)   bands (ev):

   -48.0006 -48.0006 -47.8988 -47.8988 -47.8975 -47.8975 -24.4592 -24.4592
   -24.2360 -24.2360 -24.2216 -24.2215 -24.2084 -24.2083 -24.0826 -24.0826
   -24.0757 -24.0757 -23.8465 -23.8465 -23.7104 -23.7104 -23.6815 -23.6815
    -9.5093  -9.4784  -8.9140  -8.8826  -8.7479  -8.6602  -8.5029  -8.4780
    -8.4724  -8.3741  -8.2265  -8.1676  -8.0103  -8.0046  -7.9331  -7.8895
     1.1028   1.1432   1.1969   1.2024   1.4659   1.5560   1.6788   1.6998
     1.8358   1.8827   1.8846   1.9818   2.1391   2.1725   2.2055   2.2663
     2.2752   2.3343   2.4896   2.6352   2.6839   2.7134   2.7622   2.9089
     2.9296   2.9342   3.0707   3.0953   3.2788   3.2844   3.3656   3.3878
     3.3886   3.5242   3.6792   3.7156   3.9558   4.0155   4.0386   4.0437
     4.1489   4.3191   4.3798   4.3860   4.4141   4.4937   4.9972   5.0018
     6.0136   6.0404   6.7846   6.7936   6.8847   6.9380   7.8007   8.0937
     8.9535   8.9752   9.0513   9.0832   9.5012   9.5412   9.5893   9.6770
     9.7276   9.8099   9.9667  10.0193  10.2468  10.2791  10.3568  10.4063
    10.5642  10.6496

     occupation numbers 
     1.0000   1.0000   1.0000   1.0000   1.0000   1.0000   1.0000   1.0000
     1.0000   1.0000   1.0000   1.0000   1.0000   1.0000   1.0000   1.0000
     1.0000   1.0000   1.0000   1.0000   1.0000   1.0000   1.0000   1.0000
     1.0000   1.0000   1.0000   1.0000   1.0000   1.0000   1.0000   1.0000
     1.0000   1.0000   1.0000   1.0000   1.0000   1.0000   1.0000   1.0000
     1.0000   1.0000   1.0000   1.0000   1.0000   1.0000   1.0000   1.0000
     1.0000   1.0000   1.0000   1.0000   1.0000   1.0000   1.0000   1.0000
     1.0000   1.0000   1.0000   1.0000   1.0000   1.0000   1.0000   1.0000
     1.0000   1.0000   1.0000   1.0000   1.0000   1.0000   1.0000   1.0000
     1.0000   1.0000   1.0000   1.0000   1.0000   1.0000   1.0000   1.0000
     1.0000   1.0000   1.0000   1.0000   1.0000   1.0000   1.0000   1.0000
     1.0000   1.0000   1.0000   1.0000   1.0000   1.0000   1.0000   0.1610
     0.0000   0.0000   0.0000   0.0000   0.0000   0.0000   0.0000   0.0000
     0.0000   0.0000   0.0000   0.0000   0.0000   0.0000   0.0000   0.0000
     0.0000   0.0000

          k = 0.2887-0.5000 0.1828 ( 54974 PWs)   bands (ev):

   -48.0006 -48.0006 -47.8988 -47.8988 -47.8975 -47.8975 -24.4592 -24.4591
   -24.2360 -24.2360 -24.2216 -24.2215 -24.2084 -24.2083 -24.0826 -24.0826
   -24.0757 -24.0757 -23.8465 -23.8465 -23.7104 -23.7104 -23.6815 -23.6815
    -9.5086  -9.4791  -8.9125  -8.8847  -8.7481  -8.6594  -8.5029  -8.4774
    -8.4725  -8.3740  -8.2261  -8.1691  -8.0101  -8.0042  -7.9333  -7.8893
     1.0966   1.1399   1.1839   1.2189   1.4719   1.5562   1.6516   1.7194
     1.8128   1.8545   1.9554   1.9959   2.1468   2.1777   2.1975   2.2475
     2.2959   2.3414   2.4785   2.5789   2.6849   2.7130   2.7861   2.8639
     2.9300   2.9865   3.0732   3.1051   3.2677   3.2689   3.3609   3.3854
     3.4027   3.5376   3.6581   3.7060   3.9673   4.0155   4.0359   4.0370
     4.1548   4.3242   4.3753   4.3828   4.4284   4.4943   4.9771   5.0235
     6.0141   6.0398   6.7850   6.7932   6.8871   6.9352   7.8035   8.0918
     8.9543   8.9737   9.0522   9.0806   9.4908   9.5439   9.5845   9.6891
     9.7263   9.8150   9.9461  10.0329  10.2483  10.2766  10.3409  10.4200
    10.5662  10.6507

     occupation numbers 
     1.0000   1.0000   1.0000   1.0000   1.0000   1.0000   1.0000   1.0000
     1.0000   1.0000   1.0000   1.0000   1.0000   1.0000   1.0000   1.0000
     1.0000   1.0000   1.0000   1.0000   1.0000   1.0000   1.0000   1.0000
     1.0000   1.0000   1.0000   1.0000   1.0000   1.0000   1.0000   1.0000
     1.0000   1.0000   1.0000   1.0000   1.0000   1.0000   1.0000   1.0000
     1.0000   1.0000   1.0000   1.0000   1.0000   1.0000   1.0000   1.0000
     1.0000   1.0000   1.0000   1.0000   1.0000   1.0000   1.0000   1.0000
     1.0000   1.0000   1.0000   1.0000   1.0000   1.0000   1.0000   1.0000
     1.0000   1.0000   1.0000   1.0000   1.0000   1.0000   1.0000   1.0000
     1.0000   1.0000   1.0000   1.0000   1.0000   1.0000   1.0000   1.0000
     1.0000   1.0000   1.0000   1.0000   1.0000   1.0000   1.0000   1.0000
     1.0000   1.0000   1.0000   1.0000   1.0000   1.0000   1.0000   0.1743
     0.0000   0.0000   0.0000   0.0000   0.0000   0.0000   0.0000   0.0000
     0.0000   0.0000   0.0000   0.0000   0.0000   0.0000   0.0000   0.0000
     0.0000   0.0000

          k = 0.2887-0.5000 0.2743 ( 54989 PWs)   bands (ev):

   -48.0006 -48.0006 -47.8988 -47.8988 -47.8975 -47.8975 -24.4592 -24.4591
   -24.2360 -24.2360 -24.2216 -24.2215 -24.2084 -24.2083 -24.0826 -24.0826
   -24.0757 -24.0757 -23.8465 -23.8465 -23.7104 -23.7104 -23.6815 -23.6815
    -9.5071  -9.4806  -8.9084  -8.8902  -8.7485  -8.6580  -8.5029  -8.4760
    -8.4726  -8.3738  -8.2252  -8.1721  -8.0097  -8.0036  -7.9337  -7.8889
     1.0849   1.1332   1.1742   1.2357   1.4836   1.5540   1.6271   1.7338
     1.7595   1.8950   2.0130   2.0135   2.1664   2.1755   2.1909   2.2307
     2.3258   2.3608   2.4612   2.5091   2.6375   2.7124   2.7649   2.8936
     2.9309   3.0302   3.0891   3.1198   3.2290   3.2461   3.3495   3.3798
     3.4490   3.5685   3.6052   3.6816   3.9898   4.0167   4.0232   4.0291
     4.1692   4.3092   4.3886   4.3916   4.4401   4.4955   4.9618   5.0420
     6.0149   6.0385   6.7857   6.7921   6.8928   6.9286   7.8093   8.0879
     8.9565   8.9701   9.0553   9.0742   9.4724   9.5471   9.5771   9.7137
     9.7239   9.8249   9.9135  10.0490  10.2529  10.2700  10.3195  10.4379
    10.5677  10.6543

     occupation numbers 
     1.0000   1.0000   1.0000   1.0000   1.0000   1.0000   1.0000   1.0000
     1.0000   1.0000   1.0000   1.0000   1.0000   1.0000   1.0000   1.0000
     1.0000   1.0000   1.0000   1.0000   1.0000   1.0000   1.0000   1.0000
     1.0000   1.0000   1.0000   1.0000   1.0000   1.0000   1.0000   1.0000
     1.0000   1.0000   1.0000   1.0000   1.0000   1.0000   1.0000   1.0000
     1.0000   1.0000   1.0000   1.0000   1.0000   1.0000   1.0000   1.0000
     1.0000   1.0000   1.0000   1.0000   1.0000   1.0000   1.0000   1.0000
     1.0000   1.0000   1.0000   1.0000   1.0000   1.0000   1.0000   1.0000
     1.0000   1.0000   1.0000   1.0000   1.0000   1.0000   1.0000   1.0000
     1.0000   1.0000   1.0000   1.0000   1.0000   1.0000   1.0000   1.0000
     1.0000   1.0000   1.0000   1.0000   1.0000   1.0000   1.0000   1.0000
     1.0000   1.0000   1.0000   1.0000   1.0000   1.0000   1.0000   0.2043
     0.0000   0.0000   0.0000   0.0000   0.0000   0.0000   0.0000   0.0000
     0.0000   0.0000   0.0000   0.0000   0.0000   0.0000   0.0000   0.0000
     0.0000   0.0000

          k = 0.2887-0.5000-0.1828 ( 54980 PWs)   bands (ev):

   -48.0006 -48.0006 -47.8988 -47.8988 -47.8975 -47.8975 -24.4592 -24.4591
   -24.2360 -24.2360 -24.2216 -24.2215 -24.2084 -24.2083 -24.0826 -24.0826
   -24.0757 -24.0757 -23.8465 -23.8464 -23.7104 -23.7104 -23.6815 -23.6815
    -9.5063  -9.4814  -8.9049  -8.8944  -8.7487  -8.6572  -8.5029  -8.4754
    -8.4727  -8.3737  -8.2247  -8.1737  -8.0094  -8.0033  -7.9340  -7.8888
     1.0794   1.1299   1.1709   1.2428   1.4893   1.5514   1.6197   1.7391
     1.7393   1.9179   2.0145   2.0391   2.1625   2.1791   2.1961   2.2255
     2.3336   2.3832   2.4560   2.4902   2.5823   2.7120   2.7570   2.9148
     2.9312   3.0476   3.1077   3.1222   3.2041   3.2327   3.3453   3.3774
     3.4914   3.5597   3.5898   3.6632   4.0082   4.0087   4.0196   4.0234
     4.1790   4.2941   4.3915   4.4109   4.4392   4.4961   4.9564   5.0490
     6.0154   6.0379   6.7862   6.7914   6.8967   6.9243   7.8123   8.0858
     8.9582   8.9677   9.0585   9.0692   9.4639   9.5481   9.5741   9.7227
     9.7272   9.8296   9.8974  10.0549  10.2583  10.2636  10.3109  10.4452
    10.5672  10.6569

     occupation numbers 
     1.0000   1.0000   1.0000   1.0000   1.0000   1.0000   1.0000   1.0000
     1.0000   1.0000   1.0000   1.0000   1.0000   1.0000   1.0000   1.0000
     1.0000   1.0000   1.0000   1.0000   1.0000   1.0000   1.0000   1.0000
     1.0000   1.0000   1.0000   1.0000   1.0000   1.0000   1.0000   1.0000
     1.0000   1.0000   1.0000   1.0000   1.0000   1.0000   1.0000   1.0000
     1.0000   1.0000   1.0000   1.0000   1.0000   1.0000   1.0000   1.0000
     1.0000   1.0000   1.0000   1.0000   1.0000   1.0000   1.0000   1.0000
     1.0000   1.0000   1.0000   1.0000   1.0000   1.0000   1.0000   1.0000
     1.0000   1.0000   1.0000   1.0000   1.0000   1.0000   1.0000   1.0000
     1.0000   1.0000   1.0000   1.0000   1.0000   1.0000   1.0000   1.0000
     1.0000   1.0000   1.0000   1.0000   1.0000   1.0000   1.0000   1.0000
     1.0000   1.0000   1.0000   1.0000   1.0000   1.0000   1.0000   0.2212
     0.0000   0.0000   0.0000   0.0000   0.0000   0.0000   0.0000   0.0000
     0.0000   0.0000   0.0000   0.0000   0.0000   0.0000   0.0000   0.0000
     0.0000   0.0000

          k =-0.0000 0.3333-0.0000 ( 54970 PWs)   bands (ev):

   -48.0010 -48.0010 -47.8983 -47.8983 -47.8975 -47.8975 -24.4689 -24.4689
   -24.2378 -24.2377 -24.2300 -24.2300 -24.2111 -24.2109 -24.0793 -24.0793
   -24.0756 -24.0756 -23.8407 -23.8407 -23.6956 -23.6956 -23.6803 -23.6803
    -9.5661  -9.4969  -9.0381  -8.9107  -8.6261  -8.5984  -8.5165  -8.4816
    -8.4333  -8.3838  -8.2455  -8.1771  -7.9926  -7.9550  -7.9097  -7.8814
     0.9807   1.0271   1.0821   1.1066   1.2500   1.3134   1.4693   1.5987
     1.6503   1.7762   1.8218   2.0251   2.0597   2.1049   2.1063   2.2644
     2.3323   2.3692   2.4909   2.5707   2.8290   2.8359   2.8735   2.9799
     3.0069   3.0878   3.1441   3.1712   3.2680   3.2867   3.4806   3.6456
     3.7063   3.7443   3.7602   3.8217   3.8539   3.8793   3.9456   4.1799
     4.1801   4.3690   4.3897   4.5730   4.7168   4.7340   4.9785   5.0126
     6.0832   6.1233   6.7861   6.7968   6.8331   6.9029   7.8814   8.2035
     8.8871   8.9080   9.0194   9.0596   9.6345   9.6773   9.7498   9.7807
     9.8503   9.8834   9.9631  10.0439  10.1732  10.1757  10.3416  10.4092
    10.6653  10.7144

     occupation numbers 
     1.0000   1.0000   1.0000   1.0000   1.0000   1.0000   1.0000   1.0000
     1.0000   1.0000   1.0000   1.0000   1.0000   1.0000   1.0000   1.0000
     1.0000   1.0000   1.0000   1.0000   1.0000   1.0000   1.0000   1.0000
     1.0000   1.0000   1.0000   1.0000   1.0000   1.0000   1.0000   1.0000
     1.0000   1.0000   1.0000   1.0000   1.0000   1.0000   1.0000   1.0000
     1.0000   1.0000   1.0000   1.0000   1.0000   1.0000   1.0000   1.0000
     1.0000   1.0000   1.0000   1.0000   1.0000   1.0000   1.0000   1.0000
     1.0000   1.0000   1.0000   1.0000   1.0000   1.0000   1.0000   1.0000
     1.0000   1.0000   1.0000   1.0000   1.0000   1.0000   1.0000   1.0000
     1.0000   1.0000   1.0000   1.0000   1.0000   1.0000   1.0000   1.0000
     1.0000   1.0000   1.0000   1.0000   1.0000   1.0000   1.0000   1.0000
     1.0000   1.0000   1.0000   1.0000   1.0000   1.0000   1.0000   0.0000
     0.0000   0.0000   0.0000   0.0000   0.0000   0.0000   0.0000   0.0000
     0.0000   0.0000   0.0000   0.0000   0.0000   0.0000   0.0000   0.0000
     0.0000   0.0000

          k =-0.0000 0.3333 0.0914 ( 54992 PWs)   bands (ev):

   -48.0010 -48.0010 -47.8983 -47.8983 -47.8975 -47.8975 -24.4689 -24.4689
   -24.2378 -24.2377 -24.2300 -24.2300 -24.2111 -24.2109 -24.0793 -24.0793
   -24.0756 -24.0756 -23.8407 -23.8407 -23.6956 -23.6956 -23.6803 -23.6803
    -9.5638  -9.4990  -9.0434  -8.9047  -8.6260  -8.5988  -8.5165  -8.4816
    -8.4339  -8.3836  -8.2413  -8.1813  -7.9916  -7.9562  -7.9095  -7.8812
     0.9828   1.0304   1.0857   1.1002   1.2471   1.3105   1.4772   1.6182
     1.6373   1.7789   1.8220   1.9892   2.0388   2.0930   2.1531   2.2505
     2.3086   2.4131   2.5150   2.5707   2.7733   2.8408   2.9152   2.9687
     3.0036   3.0740   3.1440   3.1717   3.2691   3.2890   3.4934   3.6393
     3.6912   3.7563   3.7723   3.8141   3.8478   3.8782   3.9757   4.1663
     4.1868   4.3690   4.3914   4.5592   4.7106   4.7390   4.9776   5.0135
     6.0843   6.1217   6.7796   6.7991   6.8367   6.9016   7.8961   8.1920
     8.8874   8.9072   9.0199   9.0585   9.6356   9.6743   9.7497   9.7788
     9.8543   9.8768   9.9756  10.0432  10.1709  10.1771  10.3400  10.4046
    10.6545  10.7285

     occupation numbers 
     1.0000   1.0000   1.0000   1.0000   1.0000   1.0000   1.0000   1.0000
     1.0000   1.0000   1.0000   1.0000   1.0000   1.0000   1.0000   1.0000
[...]
     hartree contribution      =     329.66057106 Ry
     xc contribution           =    -175.92108532 Ry
     ewald contribution        =    -794.80301023 Ry
     DFT-D3 Dispersion         =      -0.33755690 Ry

     convergence has been achieved in  16 iterations

     Forces acting on atoms (cartesian axes, Ry/au):

     atom    1 type  1   force =     0.00013033   -0.00000000   -0.00018205
     atom    2 type  1   force =    -0.00006516    0.00011287   -0.00018205
     atom    3 type  1   force =    -0.00006516   -0.00011287   -0.00018205
     atom    4 type  1   force =    -0.00013033    0.00000000    0.00018205
     atom    5 type  1   force =     0.00006516   -0.00011287    0.00018205
     atom    6 type  1   force =     0.00006516    0.00011287    0.00018205
     atom    7 type  2   force =    -0.00000000   -0.00000000    0.00000111
     atom    8 type  2   force =    -0.00000279   -0.00000000    0.00008842
     atom    9 type  2   force =     0.00000139   -0.00000241    0.00008842
     atom   10 type  2   force =     0.00000139    0.00000241    0.00008842
     atom   11 type  2   force =     0.00000000   -0.00000000   -0.00001056
     atom   12 type  2   force =    -0.00002051    0.00000000    0.00003173
     atom   13 type  2   force =     0.00001026   -0.00001776    0.00003173
     atom   14 type  2   force =     0.00001026    0.00001776    0.00003173
     atom   15 type  2   force =     0.00002051   -0.00000000   -0.00003173
     atom   16 type  2   force =    -0.00001026    0.00001776   -0.00003173
     atom   17 type  2   force =    -0.00001026   -0.00001776   -0.00003173
     atom   18 type  2   force =    -0.00000000   -0.00000000    0.00001056
     atom   19 type  2   force =     0.00000279    0.00000000   -0.00008842
     atom   20 type  2   force =    -0.00000139    0.00000241   -0.00008842
     atom   21 type  2   force =    -0.00000139   -0.00000241   -0.00008842
     atom   22 type  2   force =     0.00000000    0.00000000   -0.00000111
     The non-local contrib.  to forces
     atom    1 type  1   force =    -0.23426668    0.00000000   -0.03896729
     atom    2 type  1   force =     0.11713334   -0.20288090   -0.03896729
     atom    3 type  1   force =     0.11713334    0.20288090   -0.03896729
     atom    4 type  1   force =     0.23426668   -0.00000000    0.03896729
     atom    5 type  1   force =    -0.11713334    0.20288090    0.03896729
     atom    6 type  1   force =    -0.11713334   -0.20288090    0.03896729
     atom    7 type  2   force =     0.00000000   -0.00000000    0.46319378
     atom    8 type  2   force =    -0.18403206    0.00000000    0.28107783
     atom    9 type  2   force =     0.09201603   -0.15937644    0.28107783
     atom   10 type  2   force =     0.09201603    0.15937644    0.28107783
     atom   11 type  2   force =    -0.00000000    0.00000000   -0.35098317
     atom   12 type  2   force =     0.19998015    0.00000000   -0.28505645
     atom   13 type  2   force =    -0.09999008    0.17318789   -0.28505645
     atom   14 type  2   force =    -0.09999008   -0.17318789   -0.28505645
     atom   15 type  2   force =    -0.19998015   -0.00000000    0.28505645
     atom   16 type  2   force =     0.09999008   -0.17318789    0.28505645
     atom   17 type  2   force =     0.09999008    0.17318789    0.28505645
     atom   18 type  2   force =     0.00000000   -0.00000000    0.35098317
     atom   19 type  2   force =     0.18403206   -0.00000000   -0.28107783
     atom   20 type  2   force =    -0.09201603    0.15937644   -0.28107783
     atom   21 type  2   force =    -0.09201603   -0.15937644   -0.28107783
     atom   22 type  2   force =     0.00000000   -0.00000000   -0.46319378
     The ionic contribution  to forces
     atom    1 type  1   force =     9.31206717    0.00000000   -0.27125129
     atom    2 type  1   force =    -4.65603358    8.06448674   -0.27125128
     atom    3 type  1   force =    -4.65603358   -8.06448674   -0.27125128
     atom    4 type  1   force =    -9.31206717   -0.00000000    0.27125129
     atom    5 type  1   force =     4.65603358   -8.06448674    0.27125128
     atom    6 type  1   force =     4.65603358    8.06448674    0.27125128
     atom    7 type  2   force =     0.00000000   -0.00000000  -14.32244284
     atom    8 type  2   force =     4.00004427    0.00000000   -8.11156155
     atom    9 type  2   force =    -2.00002214    3.46413995   -8.11156155
     atom   10 type  2   force =    -2.00002214   -3.46413995   -8.11156155
     atom   11 type  2   force =     0.00000000    0.00000000    9.68116341
     atom   12 type  2   force =    -6.82504865    0.00000000   10.09421943
     atom   13 type  2   force =     3.41252432   -5.91066551   10.09421943
     atom   14 type  2   force =     3.41252432    5.91066551   10.09421943
     atom   15 type  2   force =     6.82504865   -0.00000000  -10.09421943
     atom   16 type  2   force =    -3.41252432    5.91066551  -10.09421943
     atom   17 type  2   force =    -3.41252432   -5.91066551  -10.09421943
     atom   18 type  2   force =    -0.00000000   -0.00000000   -9.68116341
     atom   19 type  2   force =    -4.00004427   -0.00000000    8.11156155
     atom   20 type  2   force =     2.00002214   -3.46413995    8.11156155
     atom   21 type  2   force =     2.00002214    3.46413995    8.11156155
     atom   22 type  2   force =    -0.00000000    0.00000000   14.32244284
     The local contribution  to forces
     atom    1 type  1   force =    -9.07549932    0.00000000    0.31009394
     atom    2 type  1   force =     4.53774960   -7.85961293    0.31009394
     atom    3 type  1   force =     4.53774960    7.85961293    0.31009394
     atom    4 type  1   force =     9.07549932   -0.00000000   -0.31009394
     atom    5 type  1   force =    -4.53774960    7.85961293   -0.31009394
     atom    6 type  1   force =    -4.53774960   -7.85961293   -0.31009394
     atom    7 type  2   force =     0.00000001    0.00000000   13.86014865
     atom    8 type  2   force =    -3.81653958   -0.00000000    7.83136916
     atom    9 type  2   force =     1.90826977   -3.30522022    7.83136916
     atom   10 type  2   force =     1.90826977    3.30522022    7.83136916
     atom   11 type  2   force =     0.00000000    0.00000000   -9.33209966
     atom   12 type  2   force =     6.62598504   -0.00000000   -9.80952909
     atom   13 type  2   force =    -3.31299253    5.73827137   -9.80952909
     atom   14 type  2   force =    -3.31299253   -5.73827137   -9.80952909
     atom   15 type  2   force =    -6.62598504    0.00000000    9.80952909
     atom   16 type  2   force =     3.31299253   -5.73827137    9.80952909
     atom   17 type  2   force =     3.31299253    5.73827137    9.80952909
     atom   18 type  2   force =    -0.00000000   -0.00000000    9.33209966
     atom   19 type  2   force =     3.81653958    0.00000000   -7.83136916
     atom   20 type  2   force =    -1.90826977    3.30522022   -7.83136916
     atom   21 type  2   force =    -1.90826977   -3.30522022   -7.83136916
     atom   22 type  2   force =    -0.00000001   -0.00000000  -13.86014865
     The core correction contribution to forces
     atom    1 type  1   force =     0.00000000    0.00000000    0.00000000
     atom    2 type  1   force =     0.00000000    0.00000000    0.00000000
     atom    3 type  1   force =     0.00000000    0.00000000    0.00000000
     atom    4 type  1   force =     0.00000000    0.00000000    0.00000000
     atom    5 type  1   force =     0.00000000    0.00000000    0.00000000
     atom    6 type  1   force =     0.00000000    0.00000000    0.00000000
     atom    7 type  2   force =     0.00000000    0.00000000    0.00000000
     atom    8 type  2   force =     0.00000000    0.00000000    0.00000000
     atom    9 type  2   force =     0.00000000    0.00000000    0.00000000
     atom   10 type  2   force =     0.00000000    0.00000000    0.00000000
     atom   11 type  2   force =     0.00000000    0.00000000    0.00000000
     atom   12 type  2   force =     0.00000000    0.00000000    0.00000000
     atom   13 type  2   force =     0.00000000    0.00000000    0.00000000
     atom   14 type  2   force =     0.00000000    0.00000000    0.00000000
     atom   15 type  2   force =     0.00000000    0.00000000    0.00000000
     atom   16 type  2   force =     0.00000000    0.00000000    0.00000000
     atom   17 type  2   force =     0.00000000    0.00000000    0.00000000
     atom   18 type  2   force =     0.00000000    0.00000000    0.00000000
     atom   19 type  2   force =     0.00000000    0.00000000    0.00000000
     atom   20 type  2   force =     0.00000000    0.00000000    0.00000000
     atom   21 type  2   force =     0.00000000    0.00000000    0.00000000
     atom   22 type  2   force =     0.00000000    0.00000000    0.00000000
     The Hubbard contrib.    to forces
     atom    1 type  1   force =     0.00000000    0.00000000    0.00000000
     atom    2 type  1   force =     0.00000000    0.00000000    0.00000000
     atom    3 type  1   force =     0.00000000    0.00000000    0.00000000
     atom    4 type  1   force =     0.00000000    0.00000000    0.00000000
     atom    5 type  1   force =     0.00000000    0.00000000    0.00000000
     atom    6 type  1   force =     0.00000000    0.00000000    0.00000000
     atom    7 type  2   force =     0.00000000    0.00000000    0.00000000
     atom    8 type  2   force =     0.00000000    0.00000000    0.00000000
     atom    9 type  2   force =     0.00000000    0.00000000    0.00000000
     atom   10 type  2   force =     0.00000000    0.00000000    0.00000000
     atom   11 type  2   force =     0.00000000    0.00000000    0.00000000
     atom   12 type  2   force =     0.00000000    0.00000000    0.00000000
     atom   13 type  2   force =     0.00000000    0.00000000    0.00000000
     atom   14 type  2   force =     0.00000000    0.00000000    0.00000000
     atom   15 type  2   force =     0.00000000    0.00000000    0.00000000
     atom   16 type  2   force =     0.00000000    0.00000000    0.00000000
     atom   17 type  2   force =     0.00000000    0.00000000    0.00000000
     atom   18 type  2   force =     0.00000000    0.00000000    0.00000000
     atom   19 type  2   force =     0.00000000    0.00000000    0.00000000
     atom   20 type  2   force =     0.00000000    0.00000000    0.00000000
     atom   21 type  2   force =     0.00000000    0.00000000    0.00000000
     atom   22 type  2   force =     0.00000000    0.00000000    0.00000000
     The SCF correction term to forces
     atom    1 type  1   force =     0.00000007   -0.00000000    0.00000037
     atom    2 type  1   force =    -0.00000004    0.00000006    0.00000037
     atom    3 type  1   force =    -0.00000004   -0.00000006    0.00000037
     atom    4 type  1   force =    -0.00000007    0.00000000   -0.00000037
     atom    5 type  1   force =     0.00000004   -0.00000006   -0.00000037
     atom    6 type  1   force =     0.00000004    0.00000006   -0.00000037
     atom    7 type  2   force =    -0.00000000   -0.00000000    0.00000085
     atom    8 type  2   force =    -0.00000057    0.00000000    0.00000084
     atom    9 type  2   force =     0.00000028   -0.00000049    0.00000084
     atom   10 type  2   force =     0.00000028    0.00000049    0.00000084
     atom   11 type  2   force =     0.00000000    0.00000000   -0.00000038
     atom   12 type  2   force =     0.00000005    0.00000000   -0.00000028
     atom   13 type  2   force =    -0.00000002    0.00000004   -0.00000028
     atom   14 type  2   force =    -0.00000002   -0.00000004   -0.00000028
     atom   15 type  2   force =    -0.00000005   -0.00000000    0.00000028
     atom   16 type  2   force =     0.00000002   -0.00000004    0.00000028
     atom   17 type  2   force =     0.00000002    0.00000004    0.00000028
     atom   18 type  2   force =    -0.00000000   -0.00000000    0.00000038
     atom   19 type  2   force =     0.00000057   -0.00000000   -0.00000084
     atom   20 type  2   force =    -0.00000028    0.00000049   -0.00000084
     atom   21 type  2   force =    -0.00000028   -0.00000049   -0.00000084
     atom   22 type  2   force =     0.00000000   -0.00000000   -0.00000085

     DFT-D3 dispersion contribution to forces:
     atom    1 type  1   force =    -0.00217095   -0.00000000   -0.00005779
     atom    2 type  1   force =     0.00108548   -0.00188010   -0.00005779
     atom    3 type  1   force =     0.00108548    0.00188010   -0.00005779
     atom    4 type  1   force =     0.00217095    0.00000000    0.00005779
     atom    5 type  1   force =    -0.00108548    0.00188010    0.00005779
     atom    6 type  1   force =    -0.00108548   -0.00188010    0.00005779
     atom    7 type  2   force =     0.00000000   -0.00000000   -0.00089933
     atom    8 type  2   force =     0.00052515   -0.00000000   -0.00079786
     atom    9 type  2   force =    -0.00026257    0.00045479   -0.00079786
     atom   10 type  2   force =    -0.00026257   -0.00045479   -0.00079786
     atom   11 type  2   force =     0.00000000   -0.00000000    0.00190924
     atom   12 type  2   force =    -0.00093711    0.00000000    0.00039812
     atom   13 type  2   force =     0.00046855   -0.00081156    0.00039812
     atom   14 type  2   force =     0.00046855    0.00081156    0.00039812
     atom   15 type  2   force =     0.00093711   -0.00000000   -0.00039812
     atom   16 type  2   force =    -0.00046855    0.00081156   -0.00039812
     atom   17 type  2   force =    -0.00046855   -0.00081156   -0.00039812
     atom   18 type  2   force =    -0.00000000    0.00000000   -0.00190924
     atom   19 type  2   force =    -0.00052515    0.00000000    0.00079786
     atom   20 type  2   force =     0.00026257   -0.00045479    0.00079786
     atom   21 type  2   force =     0.00026257    0.00045479    0.00079786
     atom   22 type  2   force =    -0.00000000    0.00000000    0.00089933

     Total force =     0.000597     Total SCF correction =     0.000003

     DFT-D3 dispersion Force =     0.006993


     Computing stress (Cartesian axis) and pressure

          total   stress  (Ry/bohr**3)                   (kbar)     P=        3.74
   0.00003331   0.00000000  -0.00000000            4.90        0.00       -0.00
   0.00000000   0.00003331   0.00000000            0.00        4.90        0.00
  -0.00000000   0.00000000   0.00000967           -0.00        0.00        1.42

     kinetic stress (kbar)  11724.06      0.00      0.00
                                0.00  11724.06      0.00
                               -0.00      0.00  11631.60

     local   stress (kbar) -18911.48      0.00     -0.00
                                0.00 -18911.48      0.00
                               -0.00      0.00   -747.99

     nonloc. stress (kbar)  10660.50     -0.00      0.00
                               -0.00  10660.50     -0.00
                                0.00     -0.00  10694.31

     hartree stress (kbar)   7621.80      0.00     -0.00
                                0.00   7621.80     -0.00
                               -0.00     -0.00   -349.72

     exc-cor stress (kbar)  -2482.43      0.00     -0.00
                                0.00  -2482.43      0.00
                               -0.00      0.00  -2485.77

     corecor stress (kbar)      0.00      0.00      0.00
                                0.00      0.00      0.00
                                0.00      0.00      0.00

     ewald   stress (kbar)  -8592.91      0.00      0.00
                                0.00  -8592.91      0.00
                                0.00      0.00 -18722.95

     hubbard stress (kbar)      0.00      0.00      0.00
                                0.00      0.00      0.00
                                0.00      0.00      0.00

     DFT-D   stress (kbar)    -14.65      0.00      0.00
                                0.00    -14.65     -0.00
                                0.00     -0.00    -18.05

     XDM     stress (kbar)      0.00      0.00      0.00
                                0.00      0.00      0.00
                                0.00      0.00      0.00

     dft-nl  stress (kbar)      0.00      0.00      0.00
                                0.00      0.00      0.00
                                0.00      0.00      0.00

     TS-vdW  stress (kbar)      0.00      0.00      0.00
                                0.00      0.00      0.00
                                0.00      0.00      0.00

     MDB     stress (kbar)      0.00      0.00      0.00
                                0.00      0.00      0.00
                                0.00      0.00      0.00

     3D-RISM stress (kbar)      0.00      0.00      0.00
                                0.00      0.00      0.00
                                0.00      0.00      0.00


     Writing all to output data dir ./out/Nb3Cl8.save/ :
     XML data file, charge density, pseudopotentials, collected wavefunctions

     init_run     :      2.84s CPU      3.00s WALL (       1 calls)
     electrons    :    108.14s CPU    111.93s WALL (       1 calls)
     forces       :      0.32s CPU      0.35s WALL (       1 calls)
     force_dftd3  :      0.03s CPU      0.03s WALL (       1 calls)
     stress       :      3.00s CPU      3.09s WALL (       1 calls)
     stres_dftd3  :      0.02s CPU      0.03s WALL (       1 calls)

     Called by init_run:
     wfcinit      :      1.54s CPU      1.60s WALL (       1 calls)
     wfcinit:wfcr :      1.49s CPU      1.54s WALL (       3 calls)
     potinit      :      0.14s CPU      0.15s WALL (       1 calls)
     hinit0       :      0.95s CPU      0.99s WALL (       1 calls)

     Called by electrons:
     c_bands      :     90.74s CPU     92.82s WALL (      17 calls)
     sum_band     :     14.69s CPU     15.11s WALL (      17 calls)
     v_of_rho     :      2.06s CPU      2.34s WALL (      17 calls)
     v_h          :      0.12s CPU      0.13s WALL (      17 calls)
     v_xc         :      1.94s CPU      2.21s WALL (      17 calls)
     mix_rho      :      0.17s CPU      0.18s WALL (      17 calls)
     energy_dftd3 :      0.00s CPU      0.00s WALL (       1 calls)

     Called by c_bands:
     init_us_2    :      0.75s CPU      0.77s WALL (     111 calls)
     cegterg      :     79.66s CPU     81.58s WALL (      51 calls)

     Called by sum_band:
     sum_band:wei :      0.06s CPU      0.07s WALL (      17 calls)
     sum_band:loo :     13.91s CPU     14.25s WALL (      17 calls)
     sum_band:buf :      0.15s CPU      0.15s WALL (      51 calls)
     sum_band:ini :      0.36s CPU      0.37s WALL (      51 calls)

     Called by *egterg:
     cdiaghg      :      6.64s CPU      6.73s WALL (     398 calls)
     cegterg:over :      2.81s CPU      2.85s WALL (     350 calls)
     cegterg:upda :      1.74s CPU      1.81s WALL (     350 calls)
     cegterg:last :      2.35s CPU      2.39s WALL (     125 calls)
     h_psi        :     66.31s CPU     67.96s WALL (     404 calls)
     g_psi        :      0.06s CPU      0.06s WALL (     350 calls)

     Called by h_psi:
     h_psi:calbec :      2.87s CPU      2.92s WALL (     404 calls)
     vloc_psi     :     61.04s CPU     62.44s WALL (     404 calls)
     add_vuspsi   :      2.20s CPU      2.24s WALL (     404 calls)

     General routines
     calbec       :      3.07s CPU      3.12s WALL (     419 calls)
     fft          :      1.53s CPU      1.62s WALL (     178 calls)
     ffts         :      0.07s CPU      0.08s WALL (      17 calls)
     fftw         :     59.66s CPU     61.05s WALL (   41898 calls)

     Parallel routines

     PWSCF        :    124.76s CPU    144.85s WALL


   This run was terminated on:  11:45:19   7May2025            

=------------------------------------------------------------------------------=
   JOB DONE.
=------------------------------------------------------------------------------=
