
     Program PHONON v.7.3.1 starts on  7May2025 at 21:24: 7 

     This program is part of the open-source Quantum ESPRESSO suite
     for quantum simulation of materials; please cite
         "P. Giannozzi et al., J. Phys.:Condens. Matter 21 395502 (2009);
         "P. Giannozzi et al., J. Phys.:Condens. Matter 29 465901 (2017);
         "P. Giannozzi et al., J. Chem. Phys. 152 154105 (2020);
          URL http://www.quantum-espresso.org", 
     in publications or presentations arising from this work. More details at
     http://www.quantum-espresso.org/quote

     Parallel version (MPI & OpenMP), running on     384 processor cores
     Number of MPI processes:               384
     Threads/MPI process:                     1

     MPI processes distributed on     2 nodes
     338779 MiB available memory on the printing compute node when the environment starts

     Waiting for input...
     Reading input from standard input
     Run is not recoverable starting from scratch

     Reading xml data from directory:

     ./out/Nb3Br8.save/

     K-points division:     npool     =      12
     R & G space division:  proc/nbgrp/npool/nimage =      32
     Subspace diagonalization in iterative solution of the eigenvalue problem:
     a serial algorithm will be used


     IMPORTANT: XC functional enforced from input :
     Exchange-correlation= PBE
                           (   1   4   3   4   0   0   0)
     Any further DFT definition will be discarded
     Please, verify this is what you really want


     Parallelization info
     --------------------
     sticks:   dense  smooth     PW     G-vecs:    dense   smooth      PW
     Min         154     154     40                40066    40066    5474
     Max         155     155     41                40087    40087    5503
     Sum        4939    4939   1303              1282343  1282343  175515

     Using Slab Decomposition

     Message from routine divide_et_impera:
     suboptimal parallelization: some nodes have no k-points
     Reading collected, re-writing distributed wavefunctions in ./out/


     Dynamical matrices for ( 2, 2, 1)  uniform grid of q-points
     (   2 q-points):
       N         xq(1)         xq(2)         xq(3) 
       1   0.000000000   0.000000000   0.000000000
       2   0.288675135  -0.500000000   0.000000000

     Number and degeneracy of irreps per q-point
       N         xq(1)         xq(2)         xq(3)   N irreps
       1   0.000000000   0.000000000   0.000000000      44
        1   1   1   1   1   1   1   1   1   1   1   2   2   2   2   2   2   2
   2   2   2   2   1   1   1   1   1   1   1   1   1   1   1   2   2   2
   2   2   2   2   2   2   2   2
       2   0.288675135  -0.500000000   0.000000000      66
     No degeneracy

     Saving dvscf to file. Distribute only q points, not irreducible representations.

     Calculation of q =    0.0000000   0.0000000   0.0000000

     Nb3Br8                                                                     

     bravais-lattice index     =            0
     lattice parameter (alat)  =      13.3936  a.u.
     unit-cell volume          =    9490.8392 (a.u.)^3
     number of atoms/cell      =           22
     number of atomic types    =            2
     kinetic-energy cut-off    =     100.0000  Ry
     charge density cut-off    =     400.0000  Ry
     convergence threshold     =      1.0E-16
     beta                      =       0.7000
     number of iterations used =            4
     Exchange-correlation= PBE
                           (   1   4   3   4   0   0   0)


     celldm(1)=   13.39359  celldm(2)=    0.00000  celldm(3)=    0.00000
     celldm(4)=    0.00000  celldm(5)=    0.00000  celldm(6)=    0.00000

     crystal axes: (cart. coord. in units of alat)
               a(1) = (  0.8660  0.5000  0.0000 )  
               a(2) = ( -0.8660  0.5000  0.0000 )  
               a(3) = (  0.0000  0.0000  4.5612 )  

     reciprocal axes: (cart. coord. in units 2 pi/alat)
               b(1) = (  0.5774  1.0000 -0.0000 )  
               b(2) = ( -0.5774  1.0000  0.0000 )  
               b(3) = (  0.0000 -0.0000  0.2192 )  


     Atoms inside the unit cell: 

     Cartesian axes

     site n.  atom      mass           positions (alat units)
        1  Nb     92.9064   tau(    1) = (    0.23396    0.00000   -0.46449  )
        2  Nb     92.9064   tau(    2) = (   -0.11698    0.20261   -0.46449  )
        3  Nb     92.9064   tau(    3) = (   -0.11698   -0.20261   -0.46449  )
        4  Nb     92.9064   tau(    4) = (   -0.23396   -0.00000    0.46449  )
        5  Nb     92.9064   tau(    5) = (    0.11698   -0.20261    0.46449  )
        6  Nb     92.9064   tau(    6) = (    0.11698    0.20261    0.46449  )
        7  Br     79.9040   tau(    7) = (    0.00000    0.00000   -0.74526  )
        8  Br     79.9040   tau(    8) = (   -0.86220   -0.00000   -0.66916  )
        9  Br     79.9040   tau(    9) = (   -0.43492   -0.24669   -0.66916  )
       10  Br     79.9040   tau(   10) = (   -0.43492    0.24669   -0.66916  )
       11  Br     79.9040   tau(   11) = (    0.57735   -0.00000   -0.26343  )
       12  Br     79.9040   tau(   12) = (   -0.28828   -0.00000   -0.21712  )
       13  Br     79.9040   tau(   13) = (    0.14414   -0.24965   -0.21712  )
       14  Br     79.9040   tau(   14) = (    0.14414    0.24965   -0.21712  )
       15  Br     79.9040   tau(   15) = (    0.28828    0.00000    0.21712  )
       16  Br     79.9040   tau(   16) = (   -0.14414    0.24965    0.21712  )
       17  Br     79.9040   tau(   17) = (   -0.14414   -0.24965    0.21712  )
       18  Br     79.9040   tau(   18) = (   -0.57735    0.00000    0.26343  )
       19  Br     79.9040   tau(   19) = (    0.86220    0.00000    0.66916  )
       20  Br     79.9040   tau(   20) = (    0.43492    0.24669    0.66916  )
       21  Br     79.9040   tau(   21) = (    0.43492   -0.24669    0.66916  )
       22  Br     79.9040   tau(   22) = (    0.00000    0.00000    0.74526  )

     Computing dynamical matrix for 
                    q = (   0.0000000   0.0000000   0.0000000 )

     13 Sym.Ops. (with q -> -q+G )


     G cutoff = 1817.5838  (  40070 G-vectors)     FFT grid: ( 90, 90,400)

     number of k points=     7  Gaussian smearing, width (Ry)=  0.0037

     PseudoPot. # 1 for Nb read from file:
     /scratch-shared/mroesner/Nb3X8_cDFPT/pp/Nb_ONCV_PBE-1.2.upf
     MD5 check sum: 2c750ac0b6910ff4cf0ab5f6c4124a64
     Pseudo is Norm-conserving, Zval = 13.0
     Generated using ONCVPSP code by D. R. Hamann
     Using radial grid of  602 points,  6 beta functions with: 
                l(1) =   0
                l(2) =   0
                l(3) =   1
                l(4) =   1
                l(5) =   2
                l(6) =   2

     PseudoPot. # 2 for Br read from file:
     /scratch-shared/mroesner/Nb3X8_cDFPT/pp/Br_ONCV_PBE-1.2.upf
     MD5 check sum: 5b50323dbf1c0ae0ed9e7f1e72c3f86c
     Pseudo is Norm-conserving, Zval =  7.0
     Generated using ONCVPSP code by D. R. Hamann
     Using radial grid of  602 points,  6 beta functions with: 
                l(1) =   0
                l(2) =   0
                l(3) =   1
                l(4) =   1
                l(5) =   2
                l(6) =   2

     Mode symmetry, D_3d (-3m)  point group:


     Atomic displacements:
     There are   44 irreducible representations

     Representation     1      1 modes -  To be done

     Representation     2      1 modes -  To be done

     Representation     3      1 modes -  To be done

     Representation     4      1 modes -  To be done

     Representation     5      1 modes -  To be done

     Representation     6      1 modes -  To be done

     Representation     7      1 modes -  To be done

     Representation     8      1 modes -  To be done

     Representation     9      1 modes -  To be done

     Representation    10      1 modes -  To be done

     Representation    11      1 modes -  To be done

     Representation    12      2 modes -  To be done

     Representation    13      2 modes -  To be done

     Representation    14      2 modes -  To be done

     Representation    15      2 modes -  To be done

     Representation    16      2 modes -  To be done

     Representation    17      2 modes -  To be done

     Representation    18      2 modes -  To be done

     Representation    19      2 modes -  To be done

     Representation    20      2 modes -  To be done

     Representation    21      2 modes -  To be done

     Representation    22      2 modes -  To be done

     Representation    23      1 modes -  To be done

     Representation    24      1 modes -  To be done

     Representation    25      1 modes -  To be done

     Representation    26      1 modes -  To be done

     Representation    27      1 modes -  To be done

     Representation    28      1 modes -  To be done

     Representation    29      1 modes -  To be done

     Representation    30      1 modes -  To be done

     Representation    31      1 modes -  To be done

     Representation    32      1 modes -  To be done

     Representation    33      1 modes -  To be done

     Representation    34      2 modes -  To be done

     Representation    35      2 modes -  To be done

     Representation    36      2 modes -  To be done

     Representation    37      2 modes -  To be done

     Representation    38      2 modes -  To be done

     Representation    39      2 modes -  To be done

     Representation    40      2 modes -  To be done

     Representation    41      2 modes -  To be done

     Representation    42      2 modes -  To be done

     Representation    43      2 modes -  To be done

     Representation    44      2 modes -  To be done



     Alpha used in Ewald sum =   2.8000

     Reading Grimme-D3 Hessian from file: ./out/Nb3Br8.hess

     Number of cells replicated along each semiaxis:    9   9   2
     Number of cells in the supercell:      1805
     Number of atoms in the supercell:     39710
     Hessian allocation dimension:   7862580

     Grimme-D3 Hessian read 

     Computing dynamical matrix for q:     0.000000    0.000000    0.000000

     Writing Hessian on file dynamical.false.dat

     Dynamical matrix computed
     PHONON       :     29.07s CPU     74.24s WALL



     Representation #   1 mode #   1

     Self-consistent Calculation

     Pert. #  1: Fermi energy shift (Ry) =    -4.0771E-01    -8.2718E-25

      iter #   1 total cpu time :   179.1 secs   av.it.:   9.0
      thresh= 1.000E-02 alpha_mix =  0.700 |ddv_scf|^2 =  1.184E-07

     Pert. #  1: Fermi energy shift (Ry) =     7.8044E-01     1.6544E-24

      iter #   2 total cpu time :   268.8 secs   av.it.:  23.1
      thresh= 3.440E-05 alpha_mix =  0.700 |ddv_scf|^2 =  3.133E-07

     Pert. #  1: Fermi energy shift (Ry) =    -3.0844E-01    -8.2718E-25

      iter #   3 total cpu time :   322.5 secs   av.it.:  21.1
      thresh= 5.597E-05 alpha_mix =  0.700 |ddv_scf|^2 =  2.872E-08

     Pert. #  1: Fermi energy shift (Ry) =    -5.2925E-02    -5.1699E-26

      iter #   4 total cpu time :   362.8 secs   av.it.:  20.6
      thresh= 1.695E-05 alpha_mix =  0.700 |ddv_scf|^2 =  1.063E-09

     Pert. #  1: Fermi energy shift (Ry) =    -3.9255E-02    -1.0340E-25

      iter #   5 total cpu time :   420.9 secs   av.it.:  19.6
      thresh= 3.260E-06 alpha_mix =  0.700 |ddv_scf|^2 =  5.254E-10

     Pert. #  1: Fermi energy shift (Ry) =    -3.9688E-02    -1.0340E-25

      iter #   6 total cpu time :   450.9 secs   av.it.:  19.6
      thresh= 2.292E-06 alpha_mix =  0.700 |ddv_scf|^2 =  1.280E-11

     Pert. #  1: Fermi energy shift (Ry) =    -4.5068E-02    -1.0340E-25

      iter #   7 total cpu time :   484.8 secs   av.it.:  21.0
      thresh= 3.578E-07 alpha_mix =  0.700 |ddv_scf|^2 =  1.576E-12

     Pert. #  1: Fermi energy shift (Ry) =    -4.4690E-02    -1.0340E-25

      iter #   8 total cpu time :   518.9 secs   av.it.:  20.6
      thresh= 1.255E-07 alpha_mix =  0.700 |ddv_scf|^2 =  2.938E-13

     Pert. #  1: Fermi energy shift (Ry) =    -4.4549E-02    -1.0340E-25

      iter #   9 total cpu time :   545.3 secs   av.it.:  20.6
      thresh= 5.420E-08 alpha_mix =  0.700 |ddv_scf|^2 =  4.660E-14

     Pert. #  1: Fermi energy shift (Ry) =    -4.4895E-02    -1.0340E-25

      iter #  10 total cpu time :   583.9 secs   av.it.:  21.6
      thresh= 2.159E-08 alpha_mix =  0.700 |ddv_scf|^2 =  1.383E-14

     Pert. #  1: Fermi energy shift (Ry) =    -4.4846E-02    -1.0340E-25

      iter #  11 total cpu time :   613.8 secs   av.it.:  20.6
      thresh= 1.176E-08 alpha_mix =  0.700 |ddv_scf|^2 =  3.916E-15

     Pert. #  1: Fermi energy shift (Ry) =    -4.4944E-02    -1.0340E-25

      iter #  12 total cpu time :   648.9 secs   av.it.:  22.0
      thresh= 6.258E-09 alpha_mix =  0.700 |ddv_scf|^2 =  1.337E-15

     Pert. #  1: Fermi energy shift (Ry) =    -4.4882E-02    -1.0340E-25

      iter #  13 total cpu time :   673.7 secs   av.it.:  21.6
      thresh= 3.657E-09 alpha_mix =  0.700 |ddv_scf|^2 =  8.289E-17

     End of self-consistent calculation

     Convergence has been achieved 


     Representation #   2 mode #   2

     Self-consistent Calculation

     Pert. #  1: Fermi energy shift (Ry) =    -1.3315E-02    -3.1019E-25

      iter #   1 total cpu time :   794.4 secs   av.it.:   7.0
      thresh= 1.000E-02 alpha_mix =  0.700 |ddv_scf|^2 =  1.666E-08

     Pert. #  1: Fermi energy shift (Ry) =     1.2371E-01     6.2039E-25

      iter #   2 total cpu time :   832.6 secs   av.it.:  22.1
      thresh= 1.291E-05 alpha_mix =  0.700 |ddv_scf|^2 =  2.277E-08

     Pert. #  1: Fermi energy shift (Ry) =    -9.7822E-02    -8.2718E-25

      iter #   3 total cpu time :   876.1 secs   av.it.:  21.1
      thresh= 1.509E-05 alpha_mix =  0.700 |ddv_scf|^2 =  6.724E-09

     Pert. #  1: Fermi energy shift (Ry) =    -2.0852E-02    -2.0680E-25

      iter #   4 total cpu time :   960.0 secs   av.it.:  19.9
      thresh= 8.200E-06 alpha_mix =  0.700 |ddv_scf|^2 =  9.923E-10

     Pert. #  1: Fermi energy shift (Ry) =     8.0726E-03    -1.5510E-25

      iter #   5 total cpu time :  1002.8 secs   av.it.:  17.9
      thresh= 3.150E-06 alpha_mix =  0.700 |ddv_scf|^2 =  1.173E-11

     Pert. #  1: Fermi energy shift (Ry) =     4.4962E-03    -1.5510E-25

      iter #   6 total cpu time :  1034.5 secs   av.it.:  21.6
      thresh= 3.426E-07 alpha_mix =  0.700 |ddv_scf|^2 =  1.350E-12

     Pert. #  1: Fermi energy shift (Ry) =     6.1826E-03    -1.5510E-25

      iter #   7 total cpu time :  1067.4 secs   av.it.:  21.6
      thresh= 1.162E-07 alpha_mix =  0.700 |ddv_scf|^2 =  8.800E-13

     Pert. #  1: Fermi energy shift (Ry) =     4.6712E-03    -1.5510E-25

      iter #   8 total cpu time :  1095.5 secs   av.it.:  21.1
      thresh= 9.381E-08 alpha_mix =  0.700 |ddv_scf|^2 =  8.364E-14

     Pert. #  1: Fermi energy shift (Ry) =     4.8596E-03    -1.5510E-25

      iter #   9 total cpu time :  1127.0 secs   av.it.:  21.1
      thresh= 2.892E-08 alpha_mix =  0.700 |ddv_scf|^2 =  2.798E-15

     Pert. #  1: Fermi energy shift (Ry) =     4.9067E-03    -1.5510E-25

      iter #  10 total cpu time :  1157.9 secs   av.it.:  21.7
      thresh= 5.290E-09 alpha_mix =  0.700 |ddv_scf|^2 =  6.269E-16

     Pert. #  1: Fermi energy shift (Ry) =     4.8750E-03    -1.5510E-25

      iter #  11 total cpu time :  1186.9 secs   av.it.:  21.1
      thresh= 2.504E-09 alpha_mix =  0.700 |ddv_scf|^2 =  4.535E-16

     Pert. #  1: Fermi energy shift (Ry) =     4.8866E-03    -1.5510E-25

      iter #  12 total cpu time :  1209.2 secs   av.it.:  20.1
      thresh= 2.130E-09 alpha_mix =  0.700 |ddv_scf|^2 =  6.535E-17

     End of self-consistent calculation

     Convergence has been achieved 


     Representation #   3 mode #   3

     Self-consistent Calculation

     Pert. #  1: Fermi energy shift (Ry) =     4.9767E-01     9.9262E-24

      iter #   1 total cpu time :  1303.0 secs   av.it.:   7.0
      thresh= 1.000E-02 alpha_mix =  0.700 |ddv_scf|^2 =  2.326E-07

     Pert. #  1: Fermi energy shift (Ry) =    -1.3963E+00    -1.6544E-23

      iter #   2 total cpu time :  1350.5 secs   av.it.:  20.6
      thresh= 4.822E-05 alpha_mix =  0.700 |ddv_scf|^2 =  2.169E-06

     Pert. #  1: Fermi energy shift (Ry) =    -3.6952E-02     1.5510E-24

      iter #   3 total cpu time :  1389.6 secs   av.it.:  17.6
      thresh= 1.473E-04 alpha_mix =  0.700 |ddv_scf|^2 =  2.856E-08

     Pert. #  1: Fermi energy shift (Ry) =     5.3970E-02     4.9631E-24

      iter #   4 total cpu time :  1428.0 secs   av.it.:  19.0
      thresh= 1.690E-05 alpha_mix =  0.700 |ddv_scf|^2 =  1.712E-09

     Pert. #  1: Fermi energy shift (Ry) =    -2.4153E-02     2.8951E-24

      iter #   5 total cpu time :  1479.8 secs   av.it.:  21.0
      thresh= 4.138E-06 alpha_mix =  0.700 |ddv_scf|^2 =  1.080E-10

     Pert. #  1: Fermi energy shift (Ry) =    -1.2790E-02     3.1019E-24

      iter #   6 total cpu time :  1531.9 secs   av.it.:  20.7
      thresh= 1.039E-06 alpha_mix =  0.700 |ddv_scf|^2 =  7.218E-12

     Pert. #  1: Fermi energy shift (Ry) =    -8.8847E-03     3.1019E-24

      iter #   7 total cpu time :  1567.7 secs   av.it.:  21.1
      thresh= 2.687E-07 alpha_mix =  0.700 |ddv_scf|^2 =  6.349E-13

     Pert. #  1: Fermi energy shift (Ry) =    -9.1165E-03     3.3087E-24

      iter #   8 total cpu time :  1602.2 secs   av.it.:  21.6
      thresh= 7.968E-08 alpha_mix =  0.700 |ddv_scf|^2 =  2.184E-13

     Pert. #  1: Fermi energy shift (Ry) =    -8.9100E-03     3.3087E-24

      iter #   9 total cpu time :  1633.8 secs   av.it.:  21.1
      thresh= 4.673E-08 alpha_mix =  0.700 |ddv_scf|^2 =  7.069E-14

     Pert. #  1: Fermi energy shift (Ry) =    -9.0799E-03     3.1019E-24

      iter #  10 total cpu time :  1664.0 secs   av.it.:  20.6
      thresh= 2.659E-08 alpha_mix =  0.700 |ddv_scf|^2 =  3.861E-14

     Pert. #  1: Fermi energy shift (Ry) =    -8.6142E-03     3.3087E-24

      iter #  11 total cpu time :  1698.3 secs   av.it.:  21.1
      thresh= 1.965E-08 alpha_mix =  0.700 |ddv_scf|^2 =  2.739E-14

     Pert. #  1: Fermi energy shift (Ry) =    -8.8596E-03     3.3087E-24

      iter #  12 total cpu time :  1727.9 secs   av.it.:  20.7
      thresh= 1.655E-08 alpha_mix =  0.700 |ddv_scf|^2 =  4.194E-16

     Pert. #  1: Fermi energy shift (Ry) =    -8.8559E-03     3.3087E-24

      iter #  13 total cpu time :  1753.9 secs   av.it.:  21.0
      thresh= 2.048E-09 alpha_mix =  0.700 |ddv_scf|^2 =  6.017E-17

     End of self-consistent calculation

     Convergence has been achieved 


     Representation #   4 mode #   4

     Self-consistent Calculation

     Pert. #  1: Fermi energy shift (Ry) =     8.2104E-01     5.7903E-24

      iter #   1 total cpu time :  1890.0 secs   av.it.:   9.9
      thresh= 1.000E-02 alpha_mix =  0.700 |ddv_scf|^2 =  3.221E-06

     Pert. #  1: Fermi energy shift (Ry) =    -3.6019E+00     1.3235E-23

      iter #   2 total cpu time :  1929.7 secs   av.it.:  21.0
      thresh= 1.795E-04 alpha_mix =  0.700 |ddv_scf|^2 =  4.832E-05

     Pert. #  1: Fermi energy shift (Ry) =    -1.8469E-02     2.8951E-24

      iter #   3 total cpu time :  1969.6 secs   av.it.:  17.4
      thresh= 6.951E-04 alpha_mix =  0.700 |ddv_scf|^2 =  1.519E-08

     Pert. #  1: Fermi energy shift (Ry) =     7.6160E-02     2.4815E-24

      iter #   4 total cpu time :  2012.8 secs   av.it.:  21.1
      thresh= 1.233E-05 alpha_mix =  0.700 |ddv_scf|^2 =  2.034E-09

     Pert. #  1: Fermi energy shift (Ry) =    -3.8949E-02     4.1359E-24

      iter #   5 total cpu time :  2062.5 secs   av.it.:  21.1
      thresh= 4.510E-06 alpha_mix =  0.700 |ddv_scf|^2 =  1.366E-09

     Pert. #  1: Fermi energy shift (Ry) =     5.3877E-03     3.7223E-24

      iter #   6 total cpu time :  2089.5 secs   av.it.:  20.1
      thresh= 3.695E-06 alpha_mix =  0.700 |ddv_scf|^2 =  1.578E-11

     Pert. #  1: Fermi energy shift (Ry) =     6.9560E-03     3.7223E-24

      iter #   7 total cpu time :  2136.5 secs   av.it.:  21.1
      thresh= 3.972E-07 alpha_mix =  0.700 |ddv_scf|^2 =  4.562E-12

     Pert. #  1: Fermi energy shift (Ry) =     7.8364E-03     3.3087E-24

      iter #   8 total cpu time :  2170.9 secs   av.it.:  21.0
      thresh= 2.136E-07 alpha_mix =  0.700 |ddv_scf|^2 =  2.554E-12

     Pert. #  1: Fermi energy shift (Ry) =     7.3533E-03     3.7223E-24

      iter #   9 total cpu time :  2199.1 secs   av.it.:  20.6
      thresh= 1.598E-07 alpha_mix =  0.700 |ddv_scf|^2 =  1.764E-13

     Pert. #  1: Fermi energy shift (Ry) =     6.5002E-03     3.7223E-24

      iter #  10 total cpu time :  2247.4 secs   av.it.:  22.0
      thresh= 4.200E-08 alpha_mix =  0.700 |ddv_scf|^2 =  5.311E-13

     Pert. #  1: Fermi energy shift (Ry) =     7.9268E-03     3.3087E-24

      iter #  11 total cpu time :  2286.1 secs   av.it.:  20.1
      thresh= 7.287E-08 alpha_mix =  0.700 |ddv_scf|^2 =  2.780E-13

     Pert. #  1: Fermi energy shift (Ry) =     7.4238E-03     3.7223E-24

      iter #  12 total cpu time :  2327.5 secs   av.it.:  20.1
      thresh= 5.272E-08 alpha_mix =  0.700 |ddv_scf|^2 =  1.255E-14

     Pert. #  1: Fermi energy shift (Ry) =     7.4511E-03     3.7223E-24

      iter #  13 total cpu time :  2356.9 secs   av.it.:  19.6
      thresh= 1.120E-08 alpha_mix =  0.700 |ddv_scf|^2 =  6.057E-16

     Pert. #  1: Fermi energy shift (Ry) =     7.4766E-03     3.7223E-24

      iter #  14 total cpu time :  2387.6 secs   av.it.:  21.3
      thresh= 2.461E-09 alpha_mix =  0.700 |ddv_scf|^2 =  4.251E-17

     End of self-consistent calculation

     Convergence has been achieved 


     Representation #   5 mode #   5

     Self-consistent Calculation

     Pert. #  1: Fermi energy shift (Ry) =    -3.9866E-02    -1.2408E-24

      iter #   1 total cpu time :  2502.4 secs   av.it.:   7.9
      thresh= 1.000E-02 alpha_mix =  0.700 |ddv_scf|^2 =  3.660E-07

     Pert. #  1: Fermi energy shift (Ry) =     4.4494E-01     1.6544E-24

      iter #   2 total cpu time :  2534.5 secs   av.it.:  21.3
      thresh= 6.050E-05 alpha_mix =  0.700 |ddv_scf|^2 =  5.605E-06

     Pert. #  1: Fermi energy shift (Ry) =    -2.0966E-01     1.5510E-25

      iter #   3 total cpu time :  2590.9 secs   av.it.:  17.6
      thresh= 2.368E-04 alpha_mix =  0.700 |ddv_scf|^2 =  1.649E-08

     Pert. #  1: Fermi energy shift (Ry) =     5.0160E-02    -1.2408E-24

      iter #   4 total cpu time :  2643.9 secs   av.it.:  20.4
      thresh= 1.284E-05 alpha_mix =  0.700 |ddv_scf|^2 =  1.408E-09

     Pert. #  1: Fermi energy shift (Ry) =    -2.0146E-02    -8.2718E-25

      iter #   5 total cpu time :  2713.4 secs   av.it.:  21.1
      thresh= 3.753E-06 alpha_mix =  0.700 |ddv_scf|^2 =  4.816E-11

     Pert. #  1: Fermi energy shift (Ry) =    -9.0367E-03    -8.2718E-25

      iter #   6 total cpu time :  2743.4 secs   av.it.:  21.4
      thresh= 6.940E-07 alpha_mix =  0.700 |ddv_scf|^2 =  6.483E-12

     Pert. #  1: Fermi energy shift (Ry) =    -1.0118E-02    -8.2718E-25

      iter #   7 total cpu time :  2802.4 secs   av.it.:  20.1
      thresh= 2.546E-07 alpha_mix =  0.700 |ddv_scf|^2 =  7.839E-14

     Pert. #  1: Fermi energy shift (Ry) =    -1.0030E-02    -8.2718E-25

      iter #   8 total cpu time :  2827.5 secs   av.it.:  21.6
      thresh= 2.800E-08 alpha_mix =  0.700 |ddv_scf|^2 =  3.699E-14

     Pert. #  1: Fermi energy shift (Ry) =    -1.0006E-02    -8.2718E-25

      iter #   9 total cpu time :  2851.5 secs   av.it.:  20.6
      thresh= 1.923E-08 alpha_mix =  0.700 |ddv_scf|^2 =  4.561E-15

     Pert. #  1: Fermi energy shift (Ry) =    -1.0156E-02    -8.2718E-25

      iter #  10 total cpu time :  2885.4 secs   av.it.:  22.4
      thresh= 6.753E-09 alpha_mix =  0.700 |ddv_scf|^2 =  6.283E-15

     Pert. #  1: Fermi energy shift (Ry) =    -1.0021E-02    -8.2718E-25

      iter #  11 total cpu time :  2912.8 secs   av.it.:  20.6
      thresh= 7.927E-09 alpha_mix =  0.700 |ddv_scf|^2 =  1.251E-15

     Pert. #  1: Fermi energy shift (Ry) =    -1.0102E-02    -8.2718E-25

      iter #  12 total cpu time :  2940.4 secs   av.it.:  21.4
      thresh= 3.537E-09 alpha_mix =  0.700 |ddv_scf|^2 =  1.318E-15

     Pert. #  1: Fermi energy shift (Ry) =    -1.0051E-02    -8.2718E-25

      iter #  13 total cpu time :  2968.4 secs   av.it.:  19.9
      thresh= 3.630E-09 alpha_mix =  0.700 |ddv_scf|^2 =  1.113E-16

     Pert. #  1: Fermi energy shift (Ry) =    -1.0060E-02    -8.2718E-25

      iter #  14 total cpu time :  2995.4 secs   av.it.:  21.7
      thresh= 1.055E-09 alpha_mix =  0.700 |ddv_scf|^2 =  1.823E-17

     End of self-consistent calculation

     Convergence has been achieved 


     Representation #   6 mode #   6

     Self-consistent Calculation

     Pert. #  1: Fermi energy shift (Ry) =    -7.6302E-01     3.3087E-24

      iter #   1 total cpu time :  3069.7 secs   av.it.:   8.0
      thresh= 1.000E-02 alpha_mix =  0.700 |ddv_scf|^2 =  8.290E-07

     Pert. #  1: Fermi energy shift (Ry) =     2.2822E+00    -3.3087E-24

      iter #   2 total cpu time :  3128.9 secs   av.it.:  20.3
      thresh= 9.105E-05 alpha_mix =  0.700 |ddv_scf|^2 =  9.394E-06

     Pert. #  1: Fermi energy shift (Ry) =     8.9635E-02     3.1019E-25

      iter #   3 total cpu time :  3167.2 secs   av.it.:  17.3
      thresh= 3.065E-04 alpha_mix =  0.700 |ddv_scf|^2 =  4.335E-08

     Pert. #  1: Fermi energy shift (Ry) =    -5.0286E-02     1.2408E-24

      iter #   4 total cpu time :  3210.2 secs   av.it.:  19.6
      thresh= 2.082E-05 alpha_mix =  0.700 |ddv_scf|^2 =  2.130E-09

     Pert. #  1: Fermi energy shift (Ry) =     5.7956E-02     8.2718E-25

      iter #   5 total cpu time :  3296.9 secs   av.it.:  21.3
      thresh= 4.615E-06 alpha_mix =  0.700 |ddv_scf|^2 =  6.811E-10

     Pert. #  1: Fermi energy shift (Ry) =     2.3068E-02     8.2718E-25

      iter #   6 total cpu time :  3327.6 secs   av.it.:  20.1
      thresh= 2.610E-06 alpha_mix =  0.700 |ddv_scf|^2 =  5.133E-11

     Pert. #  1: Fermi energy shift (Ry) =     1.6549E-02     8.2718E-25

      iter #   7 total cpu time :  3367.8 secs   av.it.:  19.7
      thresh= 7.165E-07 alpha_mix =  0.700 |ddv_scf|^2 =  1.097E-12

     Pert. #  1: Fermi energy shift (Ry) =     1.5888E-02     8.2718E-25

      iter #   8 total cpu time :  3398.0 secs   av.it.:  21.1
      thresh= 1.047E-07 alpha_mix =  0.700 |ddv_scf|^2 =  3.276E-13

     Pert. #  1: Fermi energy shift (Ry) =     1.6568E-02     8.2718E-25

      iter #   9 total cpu time :  3424.6 secs   av.it.:  21.0
      thresh= 5.724E-08 alpha_mix =  0.700 |ddv_scf|^2 =  8.897E-14

     Pert. #  1: Fermi energy shift (Ry) =     1.6492E-02     8.2718E-25

      iter #  10 total cpu time :  3453.1 secs   av.it.:  19.9
      thresh= 2.983E-08 alpha_mix =  0.700 |ddv_scf|^2 =  2.187E-15

     Pert. #  1: Fermi energy shift (Ry) =     1.6452E-02     8.2718E-25

      iter #  11 total cpu time :  3487.9 secs   av.it.:  21.1
      thresh= 4.677E-09 alpha_mix =  0.700 |ddv_scf|^2 =  2.726E-16

     Pert. #  1: Fermi energy shift (Ry) =     1.6418E-02     8.2718E-25

      iter #  12 total cpu time :  3523.7 secs   av.it.:  21.7
      thresh= 1.651E-09 alpha_mix =  0.700 |ddv_scf|^2 =  7.323E-16

     Pert. #  1: Fermi energy shift (Ry) =     1.6439E-02     8.2718E-25

      iter #  13 total cpu time :  3547.5 secs   av.it.:  19.3
      thresh= 2.706E-09 alpha_mix =  0.700 |ddv_scf|^2 =  3.340E-17

     End of self-consistent calculation

     Convergence has been achieved 


     Representation #   7 mode #   7

     Self-consistent Calculation

     Pert. #  1: Fermi energy shift (Ry) =     5.9125E-02     4.1359E-25

      iter #   1 total cpu time :  3651.5 secs   av.it.:   7.0
      thresh= 1.000E-02 alpha_mix =  0.700 |ddv_scf|^2 =  1.556E-07

     Pert. #  1: Fermi energy shift (Ry) =    -4.3865E-01    -6.2039E-25

      iter #   2 total cpu time :  3715.9 secs   av.it.:  21.1
      thresh= 3.945E-05 alpha_mix =  0.700 |ddv_scf|^2 =  2.316E-06

     Pert. #  1: Fermi energy shift (Ry) =     8.6515E-02    -3.1019E-25

      iter #   3 total cpu time :  3761.1 secs   av.it.:  17.6
      thresh= 1.522E-04 alpha_mix =  0.700 |ddv_scf|^2 =  4.976E-09

     Pert. #  1: Fermi energy shift (Ry) =    -4.6763E-02     3.1019E-25

      iter #   4 total cpu time :  3822.1 secs   av.it.:  20.6
      thresh= 7.054E-06 alpha_mix =  0.700 |ddv_scf|^2 =  9.545E-10

     Pert. #  1: Fermi energy shift (Ry) =     1.1187E-02     1.2925E-26

      iter #   5 total cpu time :  3894.4 secs   av.it.:  21.1
      thresh= 3.089E-06 alpha_mix =  0.700 |ddv_scf|^2 =  5.569E-11

     Pert. #  1: Fermi energy shift (Ry) =    -2.4498E-04     7.7548E-26

      iter #   6 total cpu time :  3925.0 secs   av.it.:  21.1
      thresh= 7.463E-07 alpha_mix =  0.700 |ddv_scf|^2 =  3.477E-12

     Pert. #  1: Fermi energy shift (Ry) =     4.2652E-05     7.7548E-26

      iter #   7 total cpu time :  3956.1 secs   av.it.:  21.0
      thresh= 1.865E-07 alpha_mix =  0.700 |ddv_scf|^2 =  1.964E-13

     Pert. #  1: Fermi energy shift (Ry) =     6.2959E-04     7.7548E-26

      iter #   8 total cpu time :  4006.1 secs   av.it.:  21.7
      thresh= 4.432E-08 alpha_mix =  0.700 |ddv_scf|^2 =  1.069E-13

     Pert. #  1: Fermi energy shift (Ry) =     4.1781E-04     7.7548E-26

      iter #   9 total cpu time :  4053.1 secs   av.it.:  19.4
      thresh= 3.270E-08 alpha_mix =  0.700 |ddv_scf|^2 =  5.706E-15

     Pert. #  1: Fermi energy shift (Ry) =     5.9474E-04     7.7548E-26

      iter #  10 total cpu time :  4088.4 secs   av.it.:  22.4
      thresh= 7.554E-09 alpha_mix =  0.700 |ddv_scf|^2 =  4.503E-15

     Pert. #  1: Fermi energy shift (Ry) =     4.5996E-04     7.7548E-26

      iter #  11 total cpu time :  4123.0 secs   av.it.:  21.7
      thresh= 6.711E-09 alpha_mix =  0.700 |ddv_scf|^2 =  1.447E-15

     Pert. #  1: Fermi energy shift (Ry) =     5.3258E-04     7.7548E-26

      iter #  12 total cpu time :  4159.4 secs   av.it.:  21.0
      thresh= 3.805E-09 alpha_mix =  0.700 |ddv_scf|^2 =  3.510E-16

     Pert. #  1: Fermi energy shift (Ry) =     5.1694E-04     7.7548E-26

      iter #  13 total cpu time :  4182.1 secs   av.it.:  20.4
      thresh= 1.874E-09 alpha_mix =  0.700 |ddv_scf|^2 =  5.867E-17

     End of self-consistent calculation

     Convergence has been achieved 


     Representation #   8 mode #   8

     Self-consistent Calculation

     Pert. #  1: Fermi energy shift (Ry) =     1.1996E-01    -1.6544E-24

      iter #   1 total cpu time :  4393.0 secs   av.it.:   7.0
      thresh= 1.000E-02 alpha_mix =  0.700 |ddv_scf|^2 =  3.180E-08

     Pert. #  1: Fermi energy shift (Ry) =    -4.9586E-01     3.3087E-24

      iter #   2 total cpu time :  4497.2 secs   av.it.:  22.4
      thresh= 1.783E-05 alpha_mix =  0.700 |ddv_scf|^2 =  2.013E-07

     Pert. #  1: Fermi energy shift (Ry) =     5.5519E-02     1.5510E-25

      iter #   3 total cpu time :  4555.4 secs   av.it.:  18.9
      thresh= 4.487E-05 alpha_mix =  0.700 |ddv_scf|^2 =  1.482E-08

     Pert. #  1: Fermi energy shift (Ry) =     3.7663E-02    -1.2925E-25

      iter #   4 total cpu time :  4646.0 secs   av.it.:  19.6
      thresh= 1.217E-05 alpha_mix =  0.700 |ddv_scf|^2 =  9.106E-10

     Pert. #  1: Fermi energy shift (Ry) =    -2.2357E-03     2.5849E-25

      iter #   5 total cpu time :  4696.4 secs   av.it.:  20.1
      thresh= 3.018E-06 alpha_mix =  0.700 |ddv_scf|^2 =  7.484E-11

     Pert. #  1: Fermi energy shift (Ry) =    -3.5951E-03     2.0680E-25

      iter #   6 total cpu time :  4740.5 secs   av.it.:  20.0
      thresh= 8.651E-07 alpha_mix =  0.700 |ddv_scf|^2 =  2.448E-12

     Pert. #  1: Fermi energy shift (Ry) =    -3.4013E-03     2.5849E-25

      iter #   7 total cpu time :  4776.2 secs   av.it.:  21.1
      thresh= 1.565E-07 alpha_mix =  0.700 |ddv_scf|^2 =  4.836E-13

     Pert. #  1: Fermi energy shift (Ry) =    -2.4598E-03     2.0680E-25

      iter #   8 total cpu time :  4821.1 secs   av.it.:  21.7
      thresh= 6.954E-08 alpha_mix =  0.700 |ddv_scf|^2 =  3.669E-13

     Pert. #  1: Fermi energy shift (Ry) =    -3.0529E-03     2.5849E-25

      iter #   9 total cpu time :  4858.1 secs   av.it.:  19.6
      thresh= 6.057E-08 alpha_mix =  0.700 |ddv_scf|^2 =  2.296E-14

     Pert. #  1: Fermi energy shift (Ry) =    -3.4881E-03     2.5849E-25

      iter #  10 total cpu time :  4889.1 secs   av.it.:  23.0
      thresh= 1.515E-08 alpha_mix =  0.700 |ddv_scf|^2 =  3.926E-14

     Pert. #  1: Fermi energy shift (Ry) =    -3.1625E-03     2.5849E-25

      iter #  11 total cpu time :  4924.0 secs   av.it.:  20.9
      thresh= 1.981E-08 alpha_mix =  0.700 |ddv_scf|^2 =  1.667E-14

     Pert. #  1: Fermi energy shift (Ry) =    -3.1824E-03     2.5849E-25

      iter #  12 total cpu time :  4956.9 secs   av.it.:  19.1
      thresh= 1.291E-08 alpha_mix =  0.700 |ddv_scf|^2 =  4.645E-16

     Pert. #  1: Fermi energy shift (Ry) =    -3.1711E-03     2.5849E-25

      iter #  13 total cpu time :  4981.7 secs   av.it.:  21.7
      thresh= 2.155E-09 alpha_mix =  0.700 |ddv_scf|^2 =  5.437E-17

     End of self-consistent calculation

     Convergence has been achieved 


     Representation #   9 mode #   9

     Self-consistent Calculation

     Pert. #  1: Fermi energy shift (Ry) =    -1.3553E-20    -3.8265E-42

      iter #   1 total cpu time :  5114.2 secs   av.it.:   6.0
      thresh= 1.000E-02 alpha_mix =  0.700 |ddv_scf|^2 =  1.418E-09

     Pert. #  1: Fermi energy shift (Ry) =    -2.2058E-24    -6.1224E-41

      iter #   2 total cpu time :  5159.3 secs   av.it.:  22.0
      thresh= 3.766E-06 alpha_mix =  0.700 |ddv_scf|^2 =  2.064E-10

     Pert. #  1: Fermi energy shift (Ry) =     2.2058E-24    -3.0612E-41

      iter #   3 total cpu time :  5233.0 secs   av.it.:  22.0
      thresh= 1.437E-06 alpha_mix =  0.700 |ddv_scf|^2 =  1.038E-12

     Pert. #  1: Fermi energy shift (Ry) =    -1.1029E-24    -1.5306E-41

      iter #   4 total cpu time :  5338.8 secs   av.it.:  22.0
      thresh= 1.019E-07 alpha_mix =  0.700 |ddv_scf|^2 =  7.501E-14

     Pert. #  1: Fermi energy shift (Ry) =    -1.3786E-25    -1.5306E-41

      iter #   5 total cpu time :  5400.2 secs   av.it.:  21.7
      thresh= 2.739E-08 alpha_mix =  0.700 |ddv_scf|^2 =  1.365E-15

     Pert. #  1: Fermi energy shift (Ry) =    -5.5145E-25    -3.0612E-41

      iter #   6 total cpu time :  5433.8 secs   av.it.:  22.3
      thresh= 3.694E-09 alpha_mix =  0.700 |ddv_scf|^2 =  6.577E-17

     End of self-consistent calculation

     Convergence has been achieved 


     Representation #  10 mode #  10

     Self-consistent Calculation

     Pert. #  1: Fermi energy shift (Ry) =    -5.4210E-20     3.6734E-40

      iter #   1 total cpu time :  5543.8 secs   av.it.:   6.0
      thresh= 1.000E-02 alpha_mix =  0.700 |ddv_scf|^2 =  1.137E-09

     Pert. #  1: Fermi energy shift (Ry) =     3.5293E-23     1.2245E-40

      iter #   2 total cpu time :  5681.0 secs   av.it.:  22.0
      thresh= 3.372E-06 alpha_mix =  0.700 |ddv_scf|^2 =  1.323E-10

     Pert. #  1: Fermi energy shift (Ry) =    -4.4116E-24     3.0612E-41

      iter #   3 total cpu time :  5750.8 secs   av.it.:  22.0
      thresh= 1.150E-06 alpha_mix =  0.700 |ddv_scf|^2 =  1.040E-12

     Pert. #  1: Fermi energy shift (Ry) =    -2.5849E-26     2.4489E-40

      iter #   4 total cpu time :  5790.9 secs   av.it.:  22.1
      thresh= 1.020E-07 alpha_mix =  0.700 |ddv_scf|^2 =  7.448E-14

     Pert. #  1: Fermi energy shift (Ry) =    -2.7573E-25     1.8367E-40

      iter #   5 total cpu time :  5883.7 secs   av.it.:  21.6
      thresh= 2.729E-08 alpha_mix =  0.700 |ddv_scf|^2 =  1.629E-15

     Pert. #  1: Fermi energy shift (Ry) =    -2.0680E-25     1.8367E-40

      iter #   6 total cpu time :  5906.6 secs   av.it.:  22.4
      thresh= 4.036E-09 alpha_mix =  0.700 |ddv_scf|^2 =  6.434E-17

     End of self-consistent calculation

     Convergence has been achieved 


     Representation #  11 mode #  11

     Self-consistent Calculation

     Pert. #  1: Fermi energy shift (Ry) =     9.0350E-21     0.0000E+00

      iter #   1 total cpu time :  6027.1 secs   av.it.:   8.1
      thresh= 1.000E-02 alpha_mix =  0.700 |ddv_scf|^2 =  9.674E-09

     Pert. #  1: Fermi energy shift (Ry) =     0.0000E+00    -1.5306E-41

      iter #   2 total cpu time :  6124.0 secs   av.it.:  22.7
      thresh= 9.835E-06 alpha_mix =  0.700 |ddv_scf|^2 =  1.813E-09

     Pert. #  1: Fermi energy shift (Ry) =    -8.8233E-24     6.1224E-41

      iter #   3 total cpu time :  6170.3 secs   av.it.:  22.0
      thresh= 4.258E-06 alpha_mix =  0.700 |ddv_scf|^2 =  3.775E-12

     Pert. #  1: Fermi energy shift (Ry) =     0.0000E+00     0.0000E+00

      iter #   4 total cpu time :  6207.7 secs   av.it.:  22.6
      thresh= 1.943E-07 alpha_mix =  0.700 |ddv_scf|^2 =  1.659E-13

     Pert. #  1: Fermi energy shift (Ry) =     8.2718E-25     0.0000E+00

      iter #   5 total cpu time :  6253.5 secs   av.it.:  21.9
      thresh= 4.074E-08 alpha_mix =  0.700 |ddv_scf|^2 =  1.844E-15

     Pert. #  1: Fermi energy shift (Ry) =     2.7573E-25     0.0000E+00

      iter #   6 total cpu time :  6303.6 secs   av.it.:  22.3
      thresh= 4.295E-09 alpha_mix =  0.700 |ddv_scf|^2 =  1.115E-16

     Pert. #  1: Fermi energy shift (Ry) =     8.2718E-25     0.0000E+00

      iter #   7 total cpu time :  6329.9 secs   av.it.:  22.4
      thresh= 1.056E-09 alpha_mix =  0.700 |ddv_scf|^2 =  7.784E-18

     End of self-consistent calculation

     Convergence has been achieved 


     Representation #  12 modes #  12  13

     Self-consistent Calculation

     Pert. #  1: Fermi energy shift (Ry) =     3.6140E-19     9.1835E-41
     Pert. #  2: Fermi energy shift (Ry) =     5.0596E-19     2.6020E-40

      iter #   1 total cpu time :  6515.6 secs   av.it.:   6.0
      thresh= 1.000E-02 alpha_mix =  0.700 |ddv_scf|^2 =  4.794E-10

     Pert. #  1: Fermi energy shift (Ry) =    -1.1565E-18     0.0000E+00
     Pert. #  2: Fermi energy shift (Ry) =     1.4456E-19     1.0714E-40

      iter #   2 total cpu time :  6593.7 secs   av.it.:  25.9
      thresh= 2.190E-06 alpha_mix =  0.700 |ddv_scf|^2 =  7.416E-09

     Pert. #  1: Fermi energy shift (Ry) =    -1.4456E-19    -3.0612E-41
     Pert. #  2: Fermi energy shift (Ry) =    -6.1438E-19     1.6837E-40

      iter #   3 total cpu time :  6663.3 secs   av.it.:  21.9
      thresh= 8.612E-06 alpha_mix =  0.700 |ddv_scf|^2 =  5.515E-10

     Pert. #  1: Fermi energy shift (Ry) =     0.0000E+00     9.1835E-41
     Pert. #  2: Fermi energy shift (Ry) =     4.5175E-20     1.9898E-40

      iter #   4 total cpu time :  6726.4 secs   av.it.:  22.7
      thresh= 2.348E-06 alpha_mix =  0.700 |ddv_scf|^2 =  9.626E-12

     Pert. #  1: Fermi energy shift (Ry) =    -6.3245E-20     9.1835E-41
     Pert. #  2: Fermi energy shift (Ry) =    -4.5175E-21     2.9081E-40

      iter #   5 total cpu time :  6797.5 secs   av.it.:  23.4
      thresh= 3.103E-07 alpha_mix =  0.700 |ddv_scf|^2 =  2.057E-13

     Pert. #  1: Fermi energy shift (Ry) =    -2.2588E-20     1.5306E-40
     Pert. #  2: Fermi energy shift (Ry) =     2.2588E-20     1.3775E-40

      iter #   6 total cpu time :  6851.8 secs   av.it.:  24.0
      thresh= 4.535E-08 alpha_mix =  0.700 |ddv_scf|^2 =  8.605E-14

     Pert. #  1: Fermi energy shift (Ry) =     6.3245E-20    -3.0612E-41
     Pert. #  2: Fermi energy shift (Ry) =     4.9693E-20     1.0714E-40

      iter #   7 total cpu time :  6908.0 secs   av.it.:  23.7
      thresh= 2.933E-08 alpha_mix =  0.700 |ddv_scf|^2 =  8.204E-15

     Pert. #  1: Fermi energy shift (Ry) =    -3.6140E-20     1.5306E-40
     Pert. #  2: Fermi energy shift (Ry) =    -1.3553E-20     1.3775E-40

      iter #   8 total cpu time :  6962.1 secs   av.it.:  23.6
      thresh= 9.058E-09 alpha_mix =  0.700 |ddv_scf|^2 =  2.614E-16

     Pert. #  1: Fermi energy shift (Ry) =    -9.0350E-21     1.5306E-40
     Pert. #  2: Fermi energy shift (Ry) =     9.0350E-21     1.3775E-40

      iter #   9 total cpu time :  7016.2 secs   av.it.:  24.6
      thresh= 1.617E-09 alpha_mix =  0.700 |ddv_scf|^2 =  4.626E-17

     End of self-consistent calculation

     Convergence has been achieved 


     Representation #  13 modes #  14  15

     Self-consistent Calculation

     Pert. #  1: Fermi energy shift (Ry) =    -1.4456E-19     3.0612E-41
     Pert. #  2: Fermi energy shift (Ry) =     1.4004E-19    -2.2959E-41

      iter #   1 total cpu time :  7139.1 secs   av.it.:   9.0
      thresh= 1.000E-02 alpha_mix =  0.700 |ddv_scf|^2 =  1.360E-08

     Pert. #  1: Fermi energy shift (Ry) =     2.8912E-19     1.8367E-40
     Pert. #  2: Fermi energy shift (Ry) =    -1.3010E-18    -9.1835E-41

      iter #   2 total cpu time :  7212.2 secs   av.it.:  24.9
      thresh= 1.166E-05 alpha_mix =  0.700 |ddv_scf|^2 =  2.773E-08

     Pert. #  1: Fermi energy shift (Ry) =     2.3130E-18    -3.0612E-41
     Pert. #  2: Fermi energy shift (Ry) =     1.4456E-18     2.2959E-41

      iter #   3 total cpu time :  7292.2 secs   av.it.:  23.9
      thresh= 1.665E-05 alpha_mix =  0.700 |ddv_scf|^2 =  4.513E-08

     Pert. #  1: Fermi energy shift (Ry) =     3.6140E-20     6.1224E-41
     Pert. #  2: Fermi energy shift (Ry) =     1.8070E-19    -2.2959E-41

      iter #   4 total cpu time :  7386.6 secs   av.it.:  21.7
      thresh= 2.124E-05 alpha_mix =  0.700 |ddv_scf|^2 =  1.177E-10

     Pert. #  1: Fermi energy shift (Ry) =    -2.1684E-19     1.5306E-41
     Pert. #  2: Fermi energy shift (Ry) =    -7.2280E-20    -6.1224E-41

      iter #   5 total cpu time :  7458.9 secs   av.it.:  23.9
      thresh= 1.085E-06 alpha_mix =  0.700 |ddv_scf|^2 =  1.771E-12

     Pert. #  1: Fermi energy shift (Ry) =    -2.5298E-19     1.5306E-41
     Pert. #  2: Fermi energy shift (Ry) =    -1.9877E-19    -6.1224E-41

      iter #   6 total cpu time :  7512.4 secs   av.it.:  23.9
      thresh= 1.331E-07 alpha_mix =  0.700 |ddv_scf|^2 =  6.865E-14

     Pert. #  1: Fermi energy shift (Ry) =     0.0000E+00     1.5306E-41
     Pert. #  2: Fermi energy shift (Ry) =    -1.2649E-19    -6.1224E-41

      iter #   7 total cpu time :  7570.6 secs   av.it.:  24.6
      thresh= 2.620E-08 alpha_mix =  0.700 |ddv_scf|^2 =  1.330E-14

     Pert. #  1: Fermi energy shift (Ry) =     3.2526E-19     1.5306E-41
     Pert. #  2: Fermi energy shift (Ry) =    -2.3491E-19    -6.1224E-41

      iter #   8 total cpu time :  7639.3 secs   av.it.:  24.0
      thresh= 1.153E-08 alpha_mix =  0.700 |ddv_scf|^2 =  1.869E-15

     Pert. #  1: Fermi energy shift (Ry) =     2.5298E-19     1.5306E-41
     Pert. #  2: Fermi energy shift (Ry) =    -2.7105E-19    -6.1224E-41

      iter #   9 total cpu time :  7698.6 secs   av.it.:  24.4
      thresh= 4.324E-09 alpha_mix =  0.700 |ddv_scf|^2 =  2.454E-16

     Pert. #  1: Fermi energy shift (Ry) =     3.6140E-20     1.5306E-41
     Pert. #  2: Fermi energy shift (Ry) =     1.2649E-19    -6.1224E-41

      iter #  10 total cpu time :  7761.5 secs   av.it.:  25.1
      thresh= 1.567E-09 alpha_mix =  0.700 |ddv_scf|^2 =  2.751E-15

     Pert. #  1: Fermi energy shift (Ry) =    -1.4456E-19     1.5306E-41
     Pert. #  2: Fermi energy shift (Ry) =     5.4210E-20    -6.1224E-41

      iter #  11 total cpu time :  7834.8 secs   av.it.:  21.9
      thresh= 5.245E-09 alpha_mix =  0.700 |ddv_scf|^2 =  6.200E-18

     End of self-consistent calculation

     Convergence has been achieved 


     Representation #  14 modes #  16  17

     Self-consistent Calculation

     Pert. #  1: Fermi energy shift (Ry) =     3.6140E-20    -4.5918E-41
     Pert. #  2: Fermi energy shift (Ry) =    -3.6140E-20     9.9488E-41

      iter #   1 total cpu time :  7955.9 secs   av.it.:   7.0
      thresh= 1.000E-02 alpha_mix =  0.700 |ddv_scf|^2 =  3.451E-09

     Pert. #  1: Fermi energy shift (Ry) =    -1.7347E-18    -3.0612E-41
     Pert. #  2: Fermi energy shift (Ry) =    -2.0238E-18    -2.2959E-40

      iter #   2 total cpu time :  8032.6 secs   av.it.:  25.6
      thresh= 5.875E-06 alpha_mix =  0.700 |ddv_scf|^2 =  6.575E-08

     Pert. #  1: Fermi energy shift (Ry) =     0.0000E+00     0.0000E+00
     Pert. #  2: Fermi energy shift (Ry) =     1.8070E-18     1.2245E-40

      iter #   3 total cpu time :  8149.0 secs   av.it.:  21.9
      thresh= 2.564E-05 alpha_mix =  0.700 |ddv_scf|^2 =  4.180E-09

     Pert. #  1: Fermi energy shift (Ry) =     6.3245E-20    -3.8265E-42
     Pert. #  2: Fermi energy shift (Ry) =    -5.4210E-20     2.2959E-41

      iter #   4 total cpu time :  8230.2 secs   av.it.:  22.0
      thresh= 6.466E-06 alpha_mix =  0.700 |ddv_scf|^2 =  1.756E-11

     Pert. #  1: Fermi energy shift (Ry) =    -1.4456E-19     2.6785E-41
     Pert. #  2: Fermi energy shift (Ry) =    -3.6140E-20     1.9132E-41

      iter #   5 total cpu time :  8311.1 secs   av.it.:  23.9
      thresh= 4.190E-07 alpha_mix =  0.700 |ddv_scf|^2 =  2.006E-12

     Pert. #  1: Fermi energy shift (Ry) =     1.6263E-19     2.6785E-41
     Pert. #  2: Fermi energy shift (Ry) =    -1.3553E-19     1.9132E-41

      iter #   6 total cpu time :  8373.0 secs   av.it.:  23.1
      thresh= 1.416E-07 alpha_mix =  0.700 |ddv_scf|^2 =  3.708E-14

     Pert. #  1: Fermi energy shift (Ry) =     3.6140E-20     2.6785E-41
     Pert. #  2: Fermi energy shift (Ry) =    -1.6263E-19     1.9132E-41

      iter #   7 total cpu time :  8431.2 secs   av.it.:  23.7
      thresh= 1.926E-08 alpha_mix =  0.700 |ddv_scf|^2 =  7.483E-15

     Pert. #  1: Fermi energy shift (Ry) =    -3.6140E-20     2.6785E-41
     Pert. #  2: Fermi energy shift (Ry) =    -1.1746E-19     1.9132E-41

      iter #   8 total cpu time :  8479.6 secs   av.it.:  24.2
      thresh= 8.650E-09 alpha_mix =  0.700 |ddv_scf|^2 =  5.923E-15

     Pert. #  1: Fermi energy shift (Ry) =    -2.5298E-19     2.6785E-41
     Pert. #  2: Fermi energy shift (Ry) =    -2.5298E-19     1.9132E-41

      iter #   9 total cpu time :  8527.9 secs   av.it.:  22.7
      thresh= 7.696E-09 alpha_mix =  0.700 |ddv_scf|^2 =  7.153E-17

     End of self-consistent calculation

     Convergence has been achieved 


     Representation #  15 modes #  18  19

     Self-consistent Calculation

     Pert. #  1: Fermi energy shift (Ry) =     2.8189E-18    -4.8979E-40
     Pert. #  2: Fermi energy shift (Ry) =    -6.5052E-19    -9.1835E-41

      iter #   1 total cpu time :  8632.7 secs   av.it.:   7.0
      thresh= 1.000E-02 alpha_mix =  0.700 |ddv_scf|^2 =  4.850E-09

     Pert. #  1: Fermi energy shift (Ry) =    -1.2143E-17     1.8367E-40
     Pert. #  2: Fermi energy shift (Ry) =     1.7347E-18     4.8979E-40

      iter #   2 total cpu time :  8719.9 secs   av.it.:  25.7
      thresh= 6.964E-06 alpha_mix =  0.700 |ddv_scf|^2 =  1.220E-07

     Pert. #  1: Fermi energy shift (Ry) =     3.4694E-18     7.9591E-40
     Pert. #  2: Fermi energy shift (Ry) =    -2.8912E-19    -5.2040E-40

      iter #   3 total cpu time :  8803.4 secs   av.it.:  21.7
      thresh= 3.492E-05 alpha_mix =  0.700 |ddv_scf|^2 =  2.871E-09

     Pert. #  1: Fermi energy shift (Ry) =     3.8399E-20    -2.1428E-40
     Pert. #  2: Fermi energy shift (Ry) =    -3.3881E-21    -3.0612E-41

      iter #   4 total cpu time :  8864.5 secs   av.it.:  22.2
      thresh= 5.359E-06 alpha_mix =  0.700 |ddv_scf|^2 =  2.183E-11

     Pert. #  1: Fermi energy shift (Ry) =    -2.1458E-20    -5.3571E-41
     Pert. #  2: Fermi energy shift (Ry) =    -2.2588E-21    -1.5306E-41

      iter #   5 total cpu time :  8929.4 secs   av.it.:  22.9
      thresh= 4.672E-07 alpha_mix =  0.700 |ddv_scf|^2 =  3.244E-12

     Pert. #  1: Fermi energy shift (Ry) =     4.2916E-20    -2.0663E-40
     Pert. #  2: Fermi energy shift (Ry) =     0.0000E+00     7.6530E-41

      iter #   6 total cpu time :  8981.3 secs   av.it.:  22.9
      thresh= 1.801E-07 alpha_mix =  0.700 |ddv_scf|^2 =  1.923E-12

     Pert. #  1: Fermi energy shift (Ry) =    -7.9056E-21    -2.0663E-40
     Pert. #  2: Fermi energy shift (Ry) =     5.6469E-22     7.6530E-41

      iter #   7 total cpu time :  9031.8 secs   av.it.:  22.9
      thresh= 1.387E-07 alpha_mix =  0.700 |ddv_scf|^2 =  3.421E-14

     Pert. #  1: Fermi energy shift (Ry) =    -2.0329E-20    -5.3571E-41
     Pert. #  2: Fermi energy shift (Ry) =     1.6941E-21    -1.5306E-41

      iter #   8 total cpu time :  9082.4 secs   av.it.:  24.7
      thresh= 1.850E-08 alpha_mix =  0.700 |ddv_scf|^2 =  4.726E-15

     Pert. #  1: Fermi energy shift (Ry) =    -9.5997E-21    -2.0663E-40
     Pert. #  2: Fermi energy shift (Ry) =    -5.6469E-22     7.6530E-41

      iter #   9 total cpu time :  9132.6 secs   av.it.:  23.7
      thresh= 6.874E-09 alpha_mix =  0.700 |ddv_scf|^2 =  3.293E-16

     Pert. #  1: Fermi energy shift (Ry) =    -1.5811E-20    -5.3571E-41
     Pert. #  2: Fermi energy shift (Ry) =     1.6941E-21    -1.5306E-41

      iter #  10 total cpu time :  9185.1 secs   av.it.:  23.1
      thresh= 1.815E-09 alpha_mix =  0.700 |ddv_scf|^2 =  1.162E-17

     End of self-consistent calculation

     Convergence has been achieved 


     Representation #  16 modes #  20  21

     Self-consistent Calculation

     Pert. #  1: Fermi energy shift (Ry) =     4.6982E-19     6.1224E-41
     Pert. #  2: Fermi energy shift (Ry) =    -2.3491E-19    -9.1835E-41

      iter #   1 total cpu time :  9384.1 secs   av.it.:   9.0
      thresh= 1.000E-02 alpha_mix =  0.700 |ddv_scf|^2 =  8.026E-09

     Pert. #  1: Fermi energy shift (Ry) =    -9.8301E-18    -1.5306E-41
     Pert. #  2: Fermi energy shift (Ry) =     5.7824E-19     7.6530E-41

      iter #   2 total cpu time :  9459.9 secs   av.it.:  25.6
      thresh= 8.959E-06 alpha_mix =  0.700 |ddv_scf|^2 =  5.332E-08

     Pert. #  1: Fermi energy shift (Ry) =     6.3607E-18    -9.1835E-41
     Pert. #  2: Fermi energy shift (Ry) =    -2.8912E-18     1.6837E-40

      iter #   3 total cpu time :  9528.1 secs   av.it.:  22.7
      thresh= 2.309E-05 alpha_mix =  0.700 |ddv_scf|^2 =  3.094E-08

     Pert. #  1: Fermi energy shift (Ry) =     4.0658E-20     6.1224E-41
     Pert. #  2: Fermi energy shift (Ry) =    -4.0658E-20    -1.1479E-40

      iter #   4 total cpu time :  9592.6 secs   av.it.:  21.9
      thresh= 1.759E-05 alpha_mix =  0.700 |ddv_scf|^2 =  5.649E-11

     Pert. #  1: Fermi energy shift (Ry) =     4.5175E-20     0.0000E+00
     Pert. #  2: Fermi energy shift (Ry) =    -7.2280E-20    -6.1224E-41

      iter #   5 total cpu time :  9689.0 secs   av.it.:  23.9
      thresh= 7.516E-07 alpha_mix =  0.700 |ddv_scf|^2 =  5.130E-12

     Pert. #  1: Fermi energy shift (Ry) =     1.7167E-19     0.0000E+00
     Pert. #  2: Fermi energy shift (Ry) =    -3.6140E-20    -6.1224E-41

      iter #   6 total cpu time :  9735.0 secs   av.it.:  23.7
      thresh= 2.265E-07 alpha_mix =  0.700 |ddv_scf|^2 =  4.503E-13

     Pert. #  1: Fermi energy shift (Ry) =     1.4456E-19     0.0000E+00
     Pert. #  2: Fermi energy shift (Ry) =    -1.8070E-20    -6.1224E-41

      iter #   7 total cpu time :  9789.4 secs   av.it.:  23.0
      thresh= 6.710E-08 alpha_mix =  0.700 |ddv_scf|^2 =  4.800E-14

     Pert. #  1: Fermi energy shift (Ry) =     2.0781E-19     0.0000E+00
     Pert. #  2: Fermi energy shift (Ry) =     1.8070E-20    -6.1224E-41

      iter #   8 total cpu time :  9838.9 secs   av.it.:  24.6
      thresh= 2.191E-08 alpha_mix =  0.700 |ddv_scf|^2 =  3.803E-15

     Pert. #  1: Fermi energy shift (Ry) =     2.8009E-19     0.0000E+00
     Pert. #  2: Fermi energy shift (Ry) =    -3.6140E-20    -6.1224E-41

      iter #   9 total cpu time :  9892.4 secs   av.it.:  25.6
      thresh= 6.167E-09 alpha_mix =  0.700 |ddv_scf|^2 =  2.489E-14

     Pert. #  1: Fermi energy shift (Ry) =     1.7167E-19     0.0000E+00
     Pert. #  2: Fermi energy shift (Ry) =    -9.0350E-20    -6.1224E-41

      iter #  10 total cpu time :  9938.9 secs   av.it.:  21.9
      thresh= 1.578E-08 alpha_mix =  0.700 |ddv_scf|^2 =  1.711E-15

     Pert. #  1: Fermi energy shift (Ry) =    -6.3245E-20     0.0000E+00
     Pert. #  2: Fermi energy shift (Ry) =     1.0842E-19    -6.1224E-41

      iter #  11 total cpu time : 10023.4 secs   av.it.:  22.6
      thresh= 4.136E-09 alpha_mix =  0.700 |ddv_scf|^2 =  7.428E-17

     End of self-consistent calculation

     Convergence has been achieved 


     Representation #  17 modes #  22  23

     Self-consistent Calculation

     Pert. #  1: Fermi energy shift (Ry) =    -6.7763E-19     1.8367E-40
     Pert. #  2: Fermi energy shift (Ry) =    -4.6982E-19     3.0612E-40

      iter #   1 total cpu time : 10126.9 secs   av.it.:   6.9
      thresh= 1.000E-02 alpha_mix =  0.700 |ddv_scf|^2 =  1.805E-09

     Pert. #  1: Fermi energy shift (Ry) =    -1.1565E-18    -6.1224E-41
     Pert. #  2: Fermi energy shift (Ry) =    -5.7824E-19    -3.6734E-40

      iter #   2 total cpu time : 10200.3 secs   av.it.:  25.9
      thresh= 4.249E-06 alpha_mix =  0.700 |ddv_scf|^2 =  3.695E-08

     Pert. #  1: Fermi energy shift (Ry) =    -1.4456E-19     2.1428E-40
     Pert. #  2: Fermi energy shift (Ry) =    -2.8912E-19     2.1428E-40

      iter #   3 total cpu time : 10270.5 secs   av.it.:  21.7
      thresh= 1.922E-05 alpha_mix =  0.700 |ddv_scf|^2 =  1.415E-09

     Pert. #  1: Fermi energy shift (Ry) =     2.1684E-19     9.1835E-41
     Pert. #  2: Fermi energy shift (Ry) =    -5.4210E-20     1.8367E-40

      iter #   4 total cpu time : 10386.9 secs   av.it.:  22.5
      thresh= 3.762E-06 alpha_mix =  0.700 |ddv_scf|^2 =  1.366E-11

     Pert. #  1: Fermi energy shift (Ry) =     5.4210E-20     9.1835E-41
     Pert. #  2: Fermi energy shift (Ry) =    -1.1746E-19     7.6530E-41

      iter #   5 total cpu time : 10459.3 secs   av.it.:  23.7
      thresh= 3.696E-07 alpha_mix =  0.700 |ddv_scf|^2 =  4.473E-13

     Pert. #  1: Fermi energy shift (Ry) =    -1.8070E-20     1.2245E-40
     Pert. #  2: Fermi energy shift (Ry) =    -7.2280E-20     1.8367E-40

      iter #   6 total cpu time : 10541.0 secs   av.it.:  23.9
      thresh= 6.688E-08 alpha_mix =  0.700 |ddv_scf|^2 =  1.947E-14

     Pert. #  1: Fermi energy shift (Ry) =     1.0842E-19     1.2245E-40
     Pert. #  2: Fermi energy shift (Ry) =    -7.2280E-20     1.8367E-40

      iter #   7 total cpu time : 10599.3 secs   av.it.:  24.0
      thresh= 1.395E-08 alpha_mix =  0.700 |ddv_scf|^2 =  3.603E-15

     Pert. #  1: Fermi energy shift (Ry) =    -1.2649E-19     1.2245E-40
     Pert. #  2: Fermi energy shift (Ry) =    -5.4210E-20     1.8367E-40

      iter #   8 total cpu time : 10650.6 secs   av.it.:  24.0
      thresh= 6.003E-09 alpha_mix =  0.700 |ddv_scf|^2 =  7.483E-16

     Pert. #  1: Fermi energy shift (Ry) =    -3.6140E-20     1.2245E-40
     Pert. #  2: Fermi energy shift (Ry) =    -9.0350E-20     1.8367E-40

      iter #   9 total cpu time : 10706.6 secs   av.it.:  24.4
      thresh= 2.735E-09 alpha_mix =  0.700 |ddv_scf|^2 =  4.819E-16

     Pert. #  1: Fermi energy shift (Ry) =     7.2280E-20     1.2245E-40
     Pert. #  2: Fermi energy shift (Ry) =     5.4210E-20     1.8367E-40

      iter #  10 total cpu time : 10793.0 secs   av.it.:  23.6
      thresh= 2.195E-09 alpha_mix =  0.700 |ddv_scf|^2 =  5.004E-16

     Pert. #  1: Fermi energy shift (Ry) =    -1.9877E-19     1.2245E-40
     Pert. #  2: Fermi energy shift (Ry) =     5.4210E-20     1.8367E-40

      iter #  11 total cpu time : 10851.2 secs   av.it.:  22.6
      thresh= 2.237E-09 alpha_mix =  0.700 |ddv_scf|^2 =  1.781E-17

     End of self-consistent calculation

     Convergence has been achieved 


     Representation #  18 modes #  24  25

     Self-consistent Calculation

     Pert. #  1: Fermi energy shift (Ry) =    -7.2280E-20    -3.0612E-41
     Pert. #  2: Fermi energy shift (Ry) =     8.6736E-19    -3.8265E-42

      iter #   1 total cpu time : 11055.5 secs   av.it.:   7.0
      thresh= 1.000E-02 alpha_mix =  0.700 |ddv_scf|^2 =  5.217E-09

     Pert. #  1: Fermi energy shift (Ry) =     1.1565E-17    -4.5918E-41
     Pert. #  2: Fermi energy shift (Ry) =    -5.2042E-18     6.1224E-41

      iter #   2 total cpu time : 11109.1 secs   av.it.:  25.5
      thresh= 7.223E-06 alpha_mix =  0.700 |ddv_scf|^2 =  1.185E-07

     Pert. #  1: Fermi energy shift (Ry) =    -7.2280E-19     1.2245E-40
     Pert. #  2: Fermi energy shift (Ry) =     2.0961E-18     0.0000E+00

      iter #   3 total cpu time : 11180.2 secs   av.it.:  21.7
      thresh= 3.443E-05 alpha_mix =  0.700 |ddv_scf|^2 =  4.557E-09

     Pert. #  1: Fermi energy shift (Ry) =    -1.9877E-19     1.9132E-41
     Pert. #  2: Fermi energy shift (Ry) =    -2.7105E-20    -9.5662E-42

      iter #   4 total cpu time : 11247.1 secs   av.it.:  22.0
      thresh= 6.751E-06 alpha_mix =  0.700 |ddv_scf|^2 =  3.142E-11

     Pert. #  1: Fermi energy shift (Ry) =     7.6798E-20    -1.5306E-41
     Pert. #  2: Fermi energy shift (Ry) =    -4.9693E-20    -3.8265E-42

      iter #   5 total cpu time : 11326.8 secs   av.it.:  23.7
      thresh= 5.605E-07 alpha_mix =  0.700 |ddv_scf|^2 =  3.306E-12

     Pert. #  1: Fermi energy shift (Ry) =     3.3881E-21    -1.1479E-41
     Pert. #  2: Fermi energy shift (Ry) =    -1.0164E-20     1.5306E-41

      iter #   6 total cpu time : 11378.0 secs   av.it.:  22.9
      thresh= 1.818E-07 alpha_mix =  0.700 |ddv_scf|^2 =  3.196E-14

     Pert. #  1: Fermi energy shift (Ry) =     0.0000E+00    -5.7397E-42
     Pert. #  2: Fermi energy shift (Ry) =    -6.2116E-21     1.9132E-42

      iter #   7 total cpu time : 11441.1 secs   av.it.:  23.7
      thresh= 1.788E-08 alpha_mix =  0.700 |ddv_scf|^2 =  9.212E-15

     Pert. #  1: Fermi energy shift (Ry) =    -4.5175E-21    -5.7397E-42
     Pert. #  2: Fermi energy shift (Ry) =    -1.2423E-20     1.9132E-42

      iter #   8 total cpu time : 11504.4 secs   av.it.:  24.1
      thresh= 9.598E-09 alpha_mix =  0.700 |ddv_scf|^2 =  4.441E-15

     Pert. #  1: Fermi energy shift (Ry) =     3.3881E-21    -5.7397E-42
     Pert. #  2: Fermi energy shift (Ry) =    -5.0822E-21     1.9132E-42

      iter #   9 total cpu time : 11565.2 secs   av.it.:  22.9
      thresh= 6.664E-09 alpha_mix =  0.700 |ddv_scf|^2 =  1.309E-16

     Pert. #  1: Fermi energy shift (Ry) =     1.6941E-20    -5.7397E-42
     Pert. #  2: Fermi energy shift (Ry) =    -3.9528E-21     1.9132E-42

      iter #  10 total cpu time : 11617.2 secs   av.it.:  24.4
      thresh= 1.144E-09 alpha_mix =  0.700 |ddv_scf|^2 =  7.511E-17

     End of self-consistent calculation

     Convergence has been achieved 


     Representation #  19 modes #  26  27

     Self-consistent Calculation

     Pert. #  1: Fermi energy shift (Ry) =     1.8793E-18    -1.9898E-40
     Pert. #  2: Fermi energy shift (Ry) =    -1.8070E-19    -1.0714E-40

      iter #   1 total cpu time : 11884.6 secs   av.it.:   7.2
      thresh= 1.000E-02 alpha_mix =  0.700 |ddv_scf|^2 =  4.452E-09

     Pert. #  1: Fermi energy shift (Ry) =     5.7824E-18    -1.0714E-40
     Pert. #  2: Fermi energy shift (Ry) =    -2.8912E-18    -7.6530E-41

      iter #   2 total cpu time : 11956.7 secs   av.it.:  25.7
      thresh= 6.672E-06 alpha_mix =  0.700 |ddv_scf|^2 =  1.265E-07

     Pert. #  1: Fermi energy shift (Ry) =     1.4456E-19     3.0612E-40
     Pert. #  2: Fermi energy shift (Ry) =     8.6736E-19    -1.8367E-40

      iter #   3 total cpu time : 12016.9 secs   av.it.:  21.7
      thresh= 3.556E-05 alpha_mix =  0.700 |ddv_scf|^2 =  1.506E-09

     Pert. #  1: Fermi energy shift (Ry) =     9.0350E-21    -9.9488E-41
     Pert. #  2: Fermi energy shift (Ry) =    -4.0658E-20    -5.3571E-41

      iter #   4 total cpu time : 12082.6 secs   av.it.:  22.6
      thresh= 3.880E-06 alpha_mix =  0.700 |ddv_scf|^2 =  2.140E-12

     Pert. #  1: Fermi energy shift (Ry) =     3.6140E-20    -3.8265E-41
     Pert. #  2: Fermi energy shift (Ry) =    -2.2588E-21    -3.8265E-42

      iter #   5 total cpu time : 12181.4 secs   av.it.:  24.7
      thresh= 1.463E-07 alpha_mix =  0.700 |ddv_scf|^2 =  2.371E-13

     Pert. #  1: Fermi energy shift (Ry) =     9.0350E-21    -3.8265E-41
     Pert. #  2: Fermi energy shift (Ry) =     2.2588E-21    -3.8265E-42

      iter #   6 total cpu time : 12238.3 secs   av.it.:  24.2
      thresh= 4.869E-08 alpha_mix =  0.700 |ddv_scf|^2 =  2.971E-14

     Pert. #  1: Fermi energy shift (Ry) =    -6.3245E-20    -3.8265E-41
     Pert. #  2: Fermi energy shift (Ry) =     1.8070E-20    -3.8265E-42

      iter #   7 total cpu time : 12298.4 secs   av.it.:  24.4
      thresh= 1.724E-08 alpha_mix =  0.700 |ddv_scf|^2 =  6.191E-15

     Pert. #  1: Fermi energy shift (Ry) =    -3.6140E-20    -3.8265E-41
     Pert. #  2: Fermi energy shift (Ry) =    -4.5175E-21    -3.8265E-42

      iter #   8 total cpu time : 12358.7 secs   av.it.:  23.9
      thresh= 7.869E-09 alpha_mix =  0.700 |ddv_scf|^2 =  7.195E-16

     Pert. #  1: Fermi energy shift (Ry) =    -5.4210E-20    -3.8265E-41
     Pert. #  2: Fermi energy shift (Ry) =    -6.7763E-21    -3.8265E-42

      iter #   9 total cpu time : 12411.7 secs   av.it.:  24.9
      thresh= 2.682E-09 alpha_mix =  0.700 |ddv_scf|^2 =  1.415E-15

     Pert. #  1: Fermi energy shift (Ry) =    -4.5175E-20    -3.8265E-41
     Pert. #  2: Fermi energy shift (Ry) =     1.3553E-20    -3.8265E-42

      iter #  10 total cpu time : 12473.3 secs   av.it.:  22.7
      thresh= 3.762E-09 alpha_mix =  0.700 |ddv_scf|^2 =  6.893E-16

     Pert. #  1: Fermi energy shift (Ry) =     5.4210E-20    -3.8265E-41
     Pert. #  2: Fermi energy shift (Ry) =     9.0350E-21    -3.8265E-42

      iter #  11 total cpu time : 12520.3 secs   av.it.:  22.4
      thresh= 2.625E-09 alpha_mix =  0.700 |ddv_scf|^2 =  1.331E-17

     End of self-consistent calculation

     Convergence has been achieved 


     Representation #  20 modes #  28  29

     Self-consistent Calculation

     Pert. #  1: Fermi energy shift (Ry) =    -8.6736E-19    -1.9132E-41
     Pert. #  2: Fermi energy shift (Ry) =     8.6736E-19     7.6530E-42

      iter #   1 total cpu time : 12634.6 secs   av.it.:   9.0
      thresh= 1.000E-02 alpha_mix =  0.700 |ddv_scf|^2 =  1.284E-08

     Pert. #  1: Fermi energy shift (Ry) =     9.2519E-18    -4.5918E-40
     Pert. #  2: Fermi energy shift (Ry) =    -3.4694E-18     0.0000E+00

      iter #   2 total cpu time : 12706.0 secs   av.it.:  25.9
      thresh= 1.133E-05 alpha_mix =  0.700 |ddv_scf|^2 =  3.209E-07

     Pert. #  1: Fermi energy shift (Ry) =    -1.4456E-18     1.8367E-40
     Pert. #  2: Fermi energy shift (Ry) =     1.4456E-18    -6.1224E-41

      iter #   3 total cpu time : 12775.5 secs   av.it.:  21.7
      thresh= 5.665E-05 alpha_mix =  0.700 |ddv_scf|^2 =  6.794E-09

     Pert. #  1: Fermi energy shift (Ry) =     7.2280E-20    -4.5918E-41
     Pert. #  2: Fermi energy shift (Ry) =    -8.1315E-20    -2.5255E-40

      iter #   4 total cpu time : 12844.6 secs   av.it.:  22.7
      thresh= 8.243E-06 alpha_mix =  0.700 |ddv_scf|^2 =  5.451E-11

     Pert. #  1: Fermi energy shift (Ry) =     3.6140E-20     6.1224E-41
     Pert. #  2: Fermi energy shift (Ry) =    -9.9385E-20    -8.4183E-41

      iter #   5 total cpu time : 12948.4 secs   av.it.:  23.9
      thresh= 7.383E-07 alpha_mix =  0.700 |ddv_scf|^2 =  5.479E-12

     Pert. #  1: Fermi energy shift (Ry) =     1.0164E-20     1.5306E-41
     Pert. #  2: Fermi energy shift (Ry) =    -1.1294E-20    -8.4183E-41

      iter #   6 total cpu time : 12999.3 secs   av.it.:  22.9
      thresh= 2.341E-07 alpha_mix =  0.700 |ddv_scf|^2 =  2.355E-13

     Pert. #  1: Fermi energy shift (Ry) =     4.5175E-21    -3.0612E-41
     Pert. #  2: Fermi energy shift (Ry) =    -2.0329E-20    -1.1479E-40

      iter #   7 total cpu time : 13048.6 secs   av.it.:  23.7
      thresh= 4.853E-08 alpha_mix =  0.700 |ddv_scf|^2 =  1.072E-14

     Pert. #  1: Fermi energy shift (Ry) =    -4.5175E-21     1.5306E-41
     Pert. #  2: Fermi energy shift (Ry) =    -9.0350E-21    -8.4183E-41

      iter #   8 total cpu time : 13107.4 secs   av.it.:  24.4
      thresh= 1.035E-08 alpha_mix =  0.700 |ddv_scf|^2 =  5.384E-15

     Pert. #  1: Fermi energy shift (Ry) =     1.3553E-20     1.5306E-41
     Pert. #  2: Fermi energy shift (Ry) =    -2.2588E-20    -8.4183E-41

      iter #   9 total cpu time : 13160.0 secs   av.it.:  23.6
      thresh= 7.337E-09 alpha_mix =  0.700 |ddv_scf|^2 =  1.977E-16

     Pert. #  1: Fermi energy shift (Ry) =     9.0350E-21     1.5306E-41
     Pert. #  2: Fermi energy shift (Ry) =    -4.5175E-21    -8.4183E-41

      iter #  10 total cpu time : 13209.0 secs   av.it.:  24.1
      thresh= 1.406E-09 alpha_mix =  0.700 |ddv_scf|^2 =  1.035E-16

     Pert. #  1: Fermi energy shift (Ry) =     4.5175E-21     3.8265E-41
     Pert. #  2: Fermi energy shift (Ry) =    -1.3553E-20    -5.3571E-41

      iter #  11 total cpu time : 13258.1 secs   av.it.:  23.4
      thresh= 1.017E-09 alpha_mix =  0.700 |ddv_scf|^2 =  5.687E-18

     End of self-consistent calculation

     Convergence has been achieved 


     Representation #  21 modes #  30  31

     Self-consistent Calculation

     Pert. #  1: Fermi energy shift (Ry) =     5.7824E-19     0.0000E+00
     Pert. #  2: Fermi energy shift (Ry) =     5.0596E-19     5.3571E-41

      iter #   1 total cpu time : 13417.5 secs   av.it.:   7.0
      thresh= 1.000E-02 alpha_mix =  0.700 |ddv_scf|^2 =  3.320E-09

     Pert. #  1: Fermi energy shift (Ry) =     5.7824E-18     2.4489E-40
     Pert. #  2: Fermi energy shift (Ry) =     0.0000E+00     3.0612E-41

      iter #   2 total cpu time : 13487.9 secs   av.it.:  25.6
      thresh= 5.762E-06 alpha_mix =  0.700 |ddv_scf|^2 =  7.561E-08

     Pert. #  1: Fermi energy shift (Ry) =     0.0000E+00    -1.2245E-40
     Pert. #  2: Fermi energy shift (Ry) =     1.4456E-19    -3.0612E-41

      iter #   3 total cpu time : 13560.6 secs   av.it.:  21.7
      thresh= 2.750E-05 alpha_mix =  0.700 |ddv_scf|^2 =  2.683E-09

     Pert. #  1: Fermi energy shift (Ry) =    -2.8234E-22     3.8265E-42
     Pert. #  2: Fermi energy shift (Ry) =    -7.0586E-23    -1.9132E-42

      iter #   4 total cpu time : 13615.3 secs   av.it.:  22.0
      thresh= 5.179E-06 alpha_mix =  0.700 |ddv_scf|^2 =  1.443E-11

     Pert. #  1: Fermi energy shift (Ry) =     0.0000E+00     2.6785E-41
     Pert. #  2: Fermi energy shift (Ry) =    -6.3245E-20     3.2525E-41

      iter #   5 total cpu time : 13708.9 secs   av.it.:  23.9
      thresh= 3.799E-07 alpha_mix =  0.700 |ddv_scf|^2 =  2.310E-12

     Pert. #  1: Fermi energy shift (Ry) =    -5.4210E-20     7.6530E-42
     Pert. #  2: Fermi energy shift (Ry) =     1.8070E-20     0.0000E+00

      iter #   6 total cpu time : 13757.0 secs   av.it.:  23.2
      thresh= 1.520E-07 alpha_mix =  0.700 |ddv_scf|^2 =  8.257E-14

     Pert. #  1: Fermi energy shift (Ry) =     9.0350E-21     2.6785E-41
     Pert. #  2: Fermi energy shift (Ry) =     2.7105E-20     3.2525E-41

      iter #   7 total cpu time : 13804.2 secs   av.it.:  23.4
      thresh= 2.873E-08 alpha_mix =  0.700 |ddv_scf|^2 =  8.431E-15

     Pert. #  1: Fermi energy shift (Ry) =     0.0000E+00     2.6785E-41
     Pert. #  2: Fermi energy shift (Ry) =    -5.4210E-20     3.2525E-41

      iter #   8 total cpu time : 13850.7 secs   av.it.:  24.7
      thresh= 9.182E-09 alpha_mix =  0.700 |ddv_scf|^2 =  6.313E-15

     Pert. #  1: Fermi energy shift (Ry) =    -1.8070E-20     2.6785E-41
     Pert. #  2: Fermi energy shift (Ry) =     1.8070E-20     3.2525E-41

      iter #   9 total cpu time : 13903.9 secs   av.it.:  22.6
      thresh= 7.945E-09 alpha_mix =  0.700 |ddv_scf|^2 =  1.105E-16

     Pert. #  1: Fermi energy shift (Ry) =     0.0000E+00     2.6785E-41
     Pert. #  2: Fermi energy shift (Ry) =     2.7105E-20     3.2525E-41

      iter #  10 total cpu time : 13956.2 secs   av.it.:  24.7
      thresh= 1.051E-09 alpha_mix =  0.700 |ddv_scf|^2 =  9.725E-17

     End of self-consistent calculation

     Convergence has been achieved 


     Representation #  22 modes #  32  33

     Self-consistent Calculation

     Pert. #  1: Fermi energy shift (Ry) =    -1.4456E-18     1.3775E-40
     Pert. #  2: Fermi energy shift (Ry) =     1.1565E-18    -7.6530E-42

      iter #   1 total cpu time : 14134.0 secs   av.it.:   8.0
      thresh= 1.000E-02 alpha_mix =  0.700 |ddv_scf|^2 =  1.008E-08

     Pert. #  1: Fermi energy shift (Ry) =     9.2519E-18    -1.8367E-40
     Pert. #  2: Fermi energy shift (Ry) =    -1.6191E-17    -3.0612E-41

      iter #   2 total cpu time : 14209.5 secs   av.it.:  25.9
      thresh= 1.004E-05 alpha_mix =  0.700 |ddv_scf|^2 =  2.757E-07

     Pert. #  1: Fermi energy shift (Ry) =    -2.0238E-18     7.6530E-41
     Pert. #  2: Fermi energy shift (Ry) =     1.8793E-18    -2.5255E-40

      iter #   3 total cpu time : 14271.8 secs   av.it.:  21.7
      thresh= 5.251E-05 alpha_mix =  0.700 |ddv_scf|^2 =  4.842E-09

     Pert. #  1: Fermi energy shift (Ry) =     0.0000E+00     4.5918E-41
     Pert. #  2: Fermi energy shift (Ry) =     1.3553E-20     7.6530E-42

      iter #   4 total cpu time : 14368.0 secs   av.it.:  22.3
      thresh= 6.958E-06 alpha_mix =  0.700 |ddv_scf|^2 =  2.487E-11

     Pert. #  1: Fermi energy shift (Ry) =     5.4210E-20     6.8877E-41
     Pert. #  2: Fermi energy shift (Ry) =    -9.0350E-20    -3.8265E-42

      iter #   5 total cpu time : 14456.3 secs   av.it.:  23.9
      thresh= 4.987E-07 alpha_mix =  0.700 |ddv_scf|^2 =  3.132E-12

     Pert. #  1: Fermi energy shift (Ry) =     1.8070E-20     6.8877E-41
     Pert. #  2: Fermi energy shift (Ry) =     9.0350E-21    -3.8265E-42

      iter #   6 total cpu time : 14519.1 secs   av.it.:  23.1
      thresh= 1.770E-07 alpha_mix =  0.700 |ddv_scf|^2 =  1.700E-13

     Pert. #  1: Fermi energy shift (Ry) =     2.2588E-20     6.8877E-41
     Pert. #  2: Fermi energy shift (Ry) =    -3.1623E-20    -3.8265E-42

      iter #   7 total cpu time : 14584.4 secs   av.it.:  23.7
      thresh= 4.123E-08 alpha_mix =  0.700 |ddv_scf|^2 =  5.469E-14

     Pert. #  1: Fermi energy shift (Ry) =     1.3553E-20     6.8877E-41
     Pert. #  2: Fermi energy shift (Ry) =    -5.4210E-20    -3.8265E-42

      iter #   8 total cpu time : 14639.2 secs   av.it.:  23.9
      thresh= 2.339E-08 alpha_mix =  0.700 |ddv_scf|^2 =  4.376E-15

     Pert. #  1: Fermi energy shift (Ry) =     2.7105E-20     6.8877E-41
     Pert. #  2: Fermi energy shift (Ry) =    -5.4210E-20    -3.8265E-42

      iter #   9 total cpu time : 14694.7 secs   av.it.:  23.1
      thresh= 6.615E-09 alpha_mix =  0.700 |ddv_scf|^2 =  9.029E-17

     End of self-consistent calculation

     Convergence has been achieved 


     Representation #  23 mode #  34

     Self-consistent Calculation

     Pert. #  1: Fermi energy shift (Ry) =    -2.1541E-27     1.2840E-34

      iter #   1 total cpu time : 14795.8 secs   av.it.:   8.1
      thresh= 1.000E-02 alpha_mix =  0.700 |ddv_scf|^2 =  9.702E-09

     Pert. #  1: Fermi energy shift (Ry) =     1.7233E-26    -3.1347E-38

      iter #   2 total cpu time : 14861.1 secs   av.it.:  22.7
      thresh= 9.850E-06 alpha_mix =  0.700 |ddv_scf|^2 =  1.847E-09

     Pert. #  1: Fermi energy shift (Ry) =    -3.4466E-26    -3.1347E-38

      iter #   3 total cpu time : 14911.2 secs   av.it.:  22.0
      thresh= 4.298E-06 alpha_mix =  0.700 |ddv_scf|^2 =  4.158E-12

     Pert. #  1: Fermi energy shift (Ry) =    -8.6165E-27     9.7958E-40

      iter #   4 total cpu time : 14952.2 secs   av.it.:  22.1
      thresh= 2.039E-07 alpha_mix =  0.700 |ddv_scf|^2 =  1.692E-13

     Pert. #  1: Fermi energy shift (Ry) =    -1.7233E-26     2.4489E-40

      iter #   5 total cpu time : 14988.4 secs   av.it.:  21.9
      thresh= 4.113E-08 alpha_mix =  0.700 |ddv_scf|^2 =  1.449E-15

     Pert. #  1: Fermi energy shift (Ry) =    -1.7233E-26     6.1224E-41

      iter #   6 total cpu time : 15029.2 secs   av.it.:  22.1
      thresh= 3.806E-09 alpha_mix =  0.700 |ddv_scf|^2 =  2.469E-17

     End of self-consistent calculation

     Convergence has been achieved 


     Representation #  24 mode #  35

     Self-consistent Calculation

     Pert. #  1: Fermi energy shift (Ry) =     2.7573E-25     0.0000E+00

      iter #   1 total cpu time : 15090.3 secs   av.it.:   6.0
      thresh= 1.000E-02 alpha_mix =  0.700 |ddv_scf|^2 =  1.418E-09

     Pert. #  1: Fermi energy shift (Ry) =     1.3786E-25     0.0000E+00

      iter #   2 total cpu time : 15129.8 secs   av.it.:  22.0
      thresh= 3.766E-06 alpha_mix =  0.700 |ddv_scf|^2 =  2.066E-10

     Pert. #  1: Fermi energy shift (Ry) =     0.0000E+00     0.0000E+00

      iter #   3 total cpu time : 15190.1 secs   av.it.:  22.0
      thresh= 1.437E-06 alpha_mix =  0.700 |ddv_scf|^2 =  1.048E-12

     Pert. #  1: Fermi energy shift (Ry) =     0.0000E+00     0.0000E+00

      iter #   4 total cpu time : 15293.8 secs   av.it.:  22.0
      thresh= 1.024E-07 alpha_mix =  0.700 |ddv_scf|^2 =  7.302E-14

     Pert. #  1: Fermi energy shift (Ry) =     1.3786E-25     0.0000E+00

      iter #   5 total cpu time : 15334.5 secs   av.it.:  21.9
      thresh= 2.702E-08 alpha_mix =  0.700 |ddv_scf|^2 =  1.733E-15

     Pert. #  1: Fermi energy shift (Ry) =     0.0000E+00     0.0000E+00

      iter #   6 total cpu time : 15361.9 secs   av.it.:  22.1
      thresh= 4.163E-09 alpha_mix =  0.700 |ddv_scf|^2 =  6.167E-17

     End of self-consistent calculation

     Convergence has been achieved 


     Representation #  25 mode #  36

     Self-consistent Calculation

     Pert. #  1: Fermi energy shift (Ry) =    -6.4623E-27     5.6173E-35

      iter #   1 total cpu time : 15453.7 secs   av.it.:   6.0
      thresh= 1.000E-02 alpha_mix =  0.700 |ddv_scf|^2 =  1.408E-09

     Pert. #  1: Fermi energy shift (Ry) =    -8.6165E-27     1.0971E-37

      iter #   2 total cpu time : 15492.3 secs   av.it.:  22.0
      thresh= 3.753E-06 alpha_mix =  0.700 |ddv_scf|^2 =  1.800E-10

     Pert. #  1: Fermi energy shift (Ry) =    -1.7233E-26    -1.9592E-39

      iter #   3 total cpu time : 15529.1 secs   av.it.:  22.0
      thresh= 1.342E-06 alpha_mix =  0.700 |ddv_scf|^2 =  1.126E-12

     Pert. #  1: Fermi energy shift (Ry) =     0.0000E+00    -7.6530E-42

      iter #   4 total cpu time : 15569.5 secs   av.it.:  22.1
      thresh= 1.061E-07 alpha_mix =  0.700 |ddv_scf|^2 =  8.290E-14

     Pert. #  1: Fermi energy shift (Ry) =     8.6165E-27     1.5306E-41

      iter #   5 total cpu time : 15632.2 secs   av.it.:  21.4
      thresh= 2.879E-08 alpha_mix =  0.700 |ddv_scf|^2 =  1.793E-15

     Pert. #  1: Fermi energy shift (Ry) =     4.3082E-27     6.1224E-41

      iter #   6 total cpu time : 15686.3 secs   av.it.:  22.4
      thresh= 4.235E-09 alpha_mix =  0.700 |ddv_scf|^2 =  7.910E-17

     End of self-consistent calculation

     Convergence has been achieved 


     Representation #  26 mode #  37

     Self-consistent Calculation

     Pert. #  1: Fermi energy shift (Ry) =    -2.7573E-25    -8.0247E-36

      iter #   1 total cpu time : 15748.5 secs   av.it.:   6.7
      thresh= 1.000E-02 alpha_mix =  0.700 |ddv_scf|^2 =  1.265E-07

     Pert. #  1: Fermi energy shift (Ry) =    -6.8932E-26     0.0000E+00

      iter #   2 total cpu time : 15793.9 secs   av.it.:  20.4
      thresh= 3.556E-05 alpha_mix =  0.700 |ddv_scf|^2 =  1.121E-04

     Pert. #  1: Fermi energy shift (Ry) =    -1.7647E-23     0.0000E+00

      iter #   3 total cpu time : 15827.6 secs   av.it.:  12.0
      thresh= 1.059E-03 alpha_mix =  0.700 |ddv_scf|^2 =  1.984E-06

     Pert. #  1: Fermi energy shift (Ry) =     2.2058E-24     0.0000E+00

      iter #   4 total cpu time : 15863.6 secs   av.it.:  16.1
      thresh= 1.409E-04 alpha_mix =  0.700 |ddv_scf|^2 =  7.736E-07

     Pert. #  1: Fermi energy shift (Ry) =     2.7573E-25     0.0000E+00

      iter #   5 total cpu time : 15901.8 secs   av.it.:  15.0
      thresh= 8.796E-05 alpha_mix =  0.700 |ddv_scf|^2 =  3.554E-07

     Pert. #  1: Fermi energy shift (Ry) =     2.0680E-25     0.0000E+00

      iter #   6 total cpu time : 15934.7 secs   av.it.:  14.6
      thresh= 5.961E-05 alpha_mix =  0.700 |ddv_scf|^2 =  3.610E-08

     Pert. #  1: Fermi energy shift (Ry) =    -1.3786E-25     0.0000E+00

      iter #   7 total cpu time : 15971.5 secs   av.it.:  15.1
      thresh= 1.900E-05 alpha_mix =  0.700 |ddv_scf|^2 =  5.340E-09

     Pert. #  1: Fermi energy shift (Ry) =     0.0000E+00     0.0000E+00

      iter #   8 total cpu time : 16000.3 secs   av.it.:  15.1
      thresh= 7.308E-06 alpha_mix =  0.700 |ddv_scf|^2 =  1.164E-11

     Pert. #  1: Fermi energy shift (Ry) =    -1.3786E-25     0.0000E+00

      iter #   9 total cpu time : 16040.1 secs   av.it.:  18.3
      thresh= 3.411E-07 alpha_mix =  0.700 |ddv_scf|^2 =  1.248E-12

     Pert. #  1: Fermi energy shift (Ry) =     1.3786E-25     0.0000E+00

      iter #  10 total cpu time : 16073.4 secs   av.it.:  18.7
      thresh= 1.117E-07 alpha_mix =  0.700 |ddv_scf|^2 =  1.264E-12

     Pert. #  1: Fermi energy shift (Ry) =    -1.3786E-25     1.2245E-40

      iter #  11 total cpu time : 16103.6 secs   av.it.:  15.4
      thresh= 1.124E-07 alpha_mix =  0.700 |ddv_scf|^2 =  2.249E-14

     Pert. #  1: Fermi energy shift (Ry) =     1.3786E-25     3.8265E-42

      iter #  12 total cpu time : 16136.5 secs   av.it.:  17.4
      thresh= 1.500E-08 alpha_mix =  0.700 |ddv_scf|^2 =  5.000E-15

     Pert. #  1: Fermi energy shift (Ry) =    -1.3786E-25     6.1224E-41

      iter #  13 total cpu time : 16168.8 secs   av.it.:  16.7
      thresh= 7.071E-09 alpha_mix =  0.700 |ddv_scf|^2 =  6.400E-16

     Pert. #  1: Fermi energy shift (Ry) =     1.3786E-25     0.0000E+00

      iter #  14 total cpu time : 16203.4 secs   av.it.:  17.9
      thresh= 2.530E-09 alpha_mix =  0.700 |ddv_scf|^2 =  1.044E-16

     Pert. #  1: Fermi energy shift (Ry) =    -1.3786E-25     0.0000E+00

      iter #  15 total cpu time : 16226.0 secs   av.it.:  17.7
      thresh= 1.022E-09 alpha_mix =  0.700 |ddv_scf|^2 =  1.344E-18

     End of self-consistent calculation

     Convergence has been achieved 


     Representation #  27 mode #  38

     Self-consistent Calculation

     Pert. #  1: Fermi energy shift (Ry) =     0.0000E+00     1.6049E-35

      iter #   1 total cpu time : 16404.7 secs   av.it.:   9.1
      thresh= 1.000E-02 alpha_mix =  0.700 |ddv_scf|^2 =  5.508E-05

     Pert. #  1: Fermi energy shift (Ry) =    -2.2058E-24     0.0000E+00

      iter #   2 total cpu time : 16448.4 secs   av.it.:  19.4
      thresh= 7.422E-04 alpha_mix =  0.700 |ddv_scf|^2 =  6.938E-02

     Pert. #  1: Fermi energy shift (Ry) =     0.0000E+00    -3.2099E-35

      iter #   3 total cpu time : 16509.4 secs   av.it.:  13.7
      thresh= 1.000E-02 alpha_mix =  0.700 |ddv_scf|^2 =  4.167E-05

     Pert. #  1: Fermi energy shift (Ry) =     0.0000E+00     2.5077E-37

      iter #   4 total cpu time : 16547.6 secs   av.it.:  17.3
      thresh= 6.455E-04 alpha_mix =  0.700 |ddv_scf|^2 =  3.487E-04

     Pert. #  1: Fermi energy shift (Ry) =     1.4117E-22     0.0000E+00

      iter #   5 total cpu time : 16589.5 secs   av.it.:  13.9
      thresh= 1.867E-03 alpha_mix =  0.700 |ddv_scf|^2 =  1.661E-05

     Pert. #  1: Fermi energy shift (Ry) =     8.8233E-24     1.0031E-36

      iter #   6 total cpu time : 16617.3 secs   av.it.:  15.6
      thresh= 4.075E-04 alpha_mix =  0.700 |ddv_scf|^2 =  8.395E-06

     Pert. #  1: Fermi energy shift (Ry) =     1.1029E-24    -1.0031E-36

      iter #   7 total cpu time : 16655.1 secs   av.it.:  14.9
      thresh= 2.897E-04 alpha_mix =  0.700 |ddv_scf|^2 =  1.770E-07

     Pert. #  1: Fermi energy shift (Ry) =    -1.7233E-26     0.0000E+00

      iter #   8 total cpu time : 16695.1 secs   av.it.:  15.6
      thresh= 4.207E-05 alpha_mix =  0.700 |ddv_scf|^2 =  1.744E-08

     Pert. #  1: Fermi energy shift (Ry) =    -6.8932E-26     3.1347E-38

      iter #   9 total cpu time : 16733.2 secs   av.it.:  16.1
      thresh= 1.321E-05 alpha_mix =  0.700 |ddv_scf|^2 =  2.557E-11

     Pert. #  1: Fermi energy shift (Ry) =    -1.3786E-25     0.0000E+00

      iter #  10 total cpu time : 16764.6 secs   av.it.:  20.1
      thresh= 5.056E-07 alpha_mix =  0.700 |ddv_scf|^2 =  8.950E-10

[...]

     Self-consistent Calculation

      iter #   1 total cpu time : 84181.9 secs   av.it.:   7.0
      thresh= 1.000E-02 alpha_mix =  0.700 |ddv_scf|^2 =  1.555E-07

      iter #   2 total cpu time : 84243.7 secs   av.it.:  22.8
      thresh= 3.943E-05 alpha_mix =  0.700 |ddv_scf|^2 =  9.554E-06

      iter #   3 total cpu time : 84316.3 secs   av.it.:  17.9
      thresh= 3.091E-04 alpha_mix =  0.700 |ddv_scf|^2 =  3.016E-07

      iter #   4 total cpu time : 84386.9 secs   av.it.:  18.0
      thresh= 5.492E-05 alpha_mix =  0.700 |ddv_scf|^2 =  2.010E-07

      iter #   5 total cpu time : 84468.9 secs   av.it.:  18.7
      thresh= 4.484E-05 alpha_mix =  0.700 |ddv_scf|^2 =  9.544E-09

      iter #   6 total cpu time : 84519.5 secs   av.it.:  19.7
      thresh= 9.769E-06 alpha_mix =  0.700 |ddv_scf|^2 =  8.303E-10

      iter #   7 total cpu time : 84567.6 secs   av.it.:  19.8
      thresh= 2.881E-06 alpha_mix =  0.700 |ddv_scf|^2 =  3.412E-11

      iter #   8 total cpu time : 84623.4 secs   av.it.:  20.5
      thresh= 5.841E-07 alpha_mix =  0.700 |ddv_scf|^2 =  8.611E-12

      iter #   9 total cpu time : 84673.6 secs   av.it.:  19.6
      thresh= 2.935E-07 alpha_mix =  0.700 |ddv_scf|^2 =  9.890E-13

      iter #  10 total cpu time : 84724.1 secs   av.it.:  20.5
      thresh= 9.945E-08 alpha_mix =  0.700 |ddv_scf|^2 =  1.535E-13

      iter #  11 total cpu time : 84784.6 secs   av.it.:  19.6
      thresh= 3.917E-08 alpha_mix =  0.700 |ddv_scf|^2 =  4.328E-14

      iter #  12 total cpu time : 84835.6 secs   av.it.:  20.5
      thresh= 2.080E-08 alpha_mix =  0.700 |ddv_scf|^2 =  2.909E-14

      iter #  13 total cpu time : 84882.9 secs   av.it.:  19.6
      thresh= 1.706E-08 alpha_mix =  0.700 |ddv_scf|^2 =  1.491E-14

      iter #  14 total cpu time : 84929.9 secs   av.it.:  19.6
      thresh= 1.221E-08 alpha_mix =  0.700 |ddv_scf|^2 =  3.695E-15

      iter #  15 total cpu time : 84979.2 secs   av.it.:  20.8
      thresh= 6.079E-09 alpha_mix =  0.700 |ddv_scf|^2 =  2.924E-15

      iter #  16 total cpu time : 85033.2 secs   av.it.:  18.6
      thresh= 5.407E-09 alpha_mix =  0.700 |ddv_scf|^2 =  5.246E-16

      iter #  17 total cpu time : 85092.9 secs   av.it.:  20.8
      thresh= 2.291E-09 alpha_mix =  0.700 |ddv_scf|^2 =  1.443E-15

      iter #  18 total cpu time : 85149.0 secs   av.it.:  18.7
      thresh= 3.799E-09 alpha_mix =  0.700 |ddv_scf|^2 =  1.810E-16

      iter #  19 total cpu time : 85194.9 secs   av.it.:  19.5
      thresh= 1.345E-09 alpha_mix =  0.700 |ddv_scf|^2 =  3.083E-17

     End of self-consistent calculation

     Convergence has been achieved 


     Representation #  66 mode #  66

     Self-consistent Calculation

      iter #   1 total cpu time : 85295.2 secs   av.it.:   7.9
      thresh= 1.000E-02 alpha_mix =  0.700 |ddv_scf|^2 =  7.150E-07

      iter #   2 total cpu time : 85353.8 secs   av.it.:  22.9
      thresh= 8.456E-05 alpha_mix =  0.700 |ddv_scf|^2 =  1.130E-04

      iter #   3 total cpu time : 85419.0 secs   av.it.:  17.1
      thresh= 1.063E-03 alpha_mix =  0.700 |ddv_scf|^2 =  3.873E-07

      iter #   4 total cpu time : 85477.7 secs   av.it.:  19.4
      thresh= 6.223E-05 alpha_mix =  0.700 |ddv_scf|^2 =  1.489E-07

      iter #   5 total cpu time : 85532.5 secs   av.it.:  18.2
      thresh= 3.859E-05 alpha_mix =  0.700 |ddv_scf|^2 =  6.791E-08

      iter #   6 total cpu time : 85579.3 secs   av.it.:  18.6
      thresh= 2.606E-05 alpha_mix =  0.700 |ddv_scf|^2 =  2.827E-09

      iter #   7 total cpu time : 85636.3 secs   av.it.:  19.6
      thresh= 5.317E-06 alpha_mix =  0.700 |ddv_scf|^2 =  1.479E-10

      iter #   8 total cpu time : 85676.2 secs   av.it.:  19.6
      thresh= 1.216E-06 alpha_mix =  0.700 |ddv_scf|^2 =  1.191E-11

      iter #   9 total cpu time : 85722.5 secs   av.it.:  21.0
      thresh= 3.451E-07 alpha_mix =  0.700 |ddv_scf|^2 =  5.764E-12

      iter #  10 total cpu time : 85769.3 secs   av.it.:  19.0
      thresh= 2.401E-07 alpha_mix =  0.700 |ddv_scf|^2 =  5.611E-13

      iter #  11 total cpu time : 85828.6 secs   av.it.:  21.5
      thresh= 7.490E-08 alpha_mix =  0.700 |ddv_scf|^2 =  1.402E-12

      iter #  12 total cpu time : 85878.8 secs   av.it.:  18.6
      thresh= 1.184E-07 alpha_mix =  0.700 |ddv_scf|^2 =  6.305E-13

      iter #  13 total cpu time : 85925.0 secs   av.it.:  17.9
      thresh= 7.940E-08 alpha_mix =  0.700 |ddv_scf|^2 =  2.009E-14

      iter #  14 total cpu time : 85967.9 secs   av.it.:  21.2
      thresh= 1.417E-08 alpha_mix =  0.700 |ddv_scf|^2 =  4.381E-15

      iter #  15 total cpu time : 86010.3 secs   av.it.:  20.4
      thresh= 6.619E-09 alpha_mix =  0.700 |ddv_scf|^2 =  4.876E-15

      iter #  16 total cpu time : 86056.1 secs   av.it.:  19.5
      thresh= 6.983E-09 alpha_mix =  0.700 |ddv_scf|^2 =  5.246E-16

      iter #  17 total cpu time : 86104.8 secs   av.it.:  21.6
      thresh= 2.290E-09 alpha_mix =  0.700 |ddv_scf|^2 =  2.038E-15

      iter #  18 total cpu time : 86144.1 secs   av.it.:  18.6
      thresh= 4.514E-09 alpha_mix =  0.700 |ddv_scf|^2 =  8.639E-17

     End of self-consistent calculation

     Convergence has been achieved 

     Number of q in the star =    3
     List of q in the star:
          1   0.288675135  -0.500000000   0.000000000
          2   0.577350269  -0.000000000   0.000000000
          3  -0.288675135  -0.500000000   0.000000000

     Diagonalizing the dynamical matrix

     q = (    0.288675135  -0.500000000   0.000000000 ) 

 **************************************************************************
     freq (    1) =       1.277729 [THz] =      42.620454 [cm-1]
     freq (    2) =       1.529770 [THz] =      51.027630 [cm-1]
     freq (    3) =       1.558005 [THz] =      51.969468 [cm-1]
     freq (    4) =       1.617788 [THz] =      53.963587 [cm-1]
     freq (    5) =       1.694402 [THz] =      56.519170 [cm-1]
     freq (    6) =       1.734428 [THz] =      57.854275 [cm-1]
     freq (    7) =       1.990450 [THz] =      66.394266 [cm-1]
     freq (    8) =       2.019544 [THz] =      67.364736 [cm-1]
     freq (    9) =       2.158549 [THz] =      72.001441 [cm-1]
     freq (   10) =       2.196613 [THz] =      73.271110 [cm-1]
     freq (   11) =       2.656442 [THz] =      88.609367 [cm-1]
     freq (   12) =       2.681759 [THz] =      89.453848 [cm-1]
     freq (   13) =       2.688928 [THz] =      89.692976 [cm-1]
     freq (   14) =       2.715467 [THz] =      90.578239 [cm-1]
     freq (   15) =       2.783894 [THz] =      92.860700 [cm-1]
     freq (   16) =       2.877408 [THz] =      95.979996 [cm-1]
     freq (   17) =       3.123492 [THz] =     104.188471 [cm-1]
     freq (   18) =       3.244777 [THz] =     108.234119 [cm-1]
     freq (   19) =       3.251244 [THz] =     108.449830 [cm-1]
     freq (   20) =       3.274457 [THz] =     109.224134 [cm-1]
     freq (   21) =       3.303876 [THz] =     110.205435 [cm-1]
     freq (   22) =       3.363095 [THz] =     112.180788 [cm-1]
     freq (   23) =       3.390470 [THz] =     113.093910 [cm-1]
     freq (   24) =       3.593738 [THz] =     119.874192 [cm-1]
     freq (   25) =       3.749703 [THz] =     125.076639 [cm-1]
     freq (   26) =       3.787012 [THz] =     126.321116 [cm-1]
     freq (   27) =       3.902058 [THz] =     130.158632 [cm-1]
     freq (   28) =       3.905338 [THz] =     130.268045 [cm-1]
     freq (   29) =       4.117266 [THz] =     137.337204 [cm-1]
     freq (   30) =       4.129779 [THz] =     137.754591 [cm-1]
     freq (   31) =       4.195359 [THz] =     139.942113 [cm-1]
     freq (   32) =       4.209290 [THz] =     140.406795 [cm-1]
     freq (   33) =       4.273768 [THz] =     142.557555 [cm-1]
     freq (   34) =       4.293991 [THz] =     143.232125 [cm-1]
     freq (   35) =       4.299957 [THz] =     143.431136 [cm-1]
     freq (   36) =       4.336513 [THz] =     144.650498 [cm-1]
     freq (   37) =       4.552050 [THz] =     151.840049 [cm-1]
     freq (   38) =       4.562073 [THz] =     152.174363 [cm-1]
     freq (   39) =       4.566005 [THz] =     152.305534 [cm-1]
     freq (   40) =       4.609387 [THz] =     153.752591 [cm-1]
     freq (   41) =       4.695581 [THz] =     156.627736 [cm-1]
     freq (   42) =       4.740223 [THz] =     158.116807 [cm-1]
     freq (   43) =       5.062057 [THz] =     168.852032 [cm-1]
     freq (   44) =       5.116479 [THz] =     170.667356 [cm-1]
     freq (   45) =       5.128676 [THz] =     171.074216 [cm-1]
     freq (   46) =       5.153179 [THz] =     171.891536 [cm-1]
     freq (   47) =       5.173669 [THz] =     172.575007 [cm-1]
     freq (   48) =       5.809036 [THz] =     193.768588 [cm-1]
     freq (   49) =       5.932815 [THz] =     197.897422 [cm-1]
     freq (   50) =       5.933850 [THz] =     197.931932 [cm-1]
     freq (   51) =       6.456544 [THz] =     215.367114 [cm-1]
     freq (   52) =       6.457978 [THz] =     215.414957 [cm-1]
     freq (   53) =       6.686636 [THz] =     223.042171 [cm-1]
     freq (   54) =       6.698690 [THz] =     223.444239 [cm-1]
     freq (   55) =       7.138513 [THz] =     238.115148 [cm-1]
     freq (   56) =       7.198160 [THz] =     240.104781 [cm-1]
     freq (   57) =       7.433671 [THz] =     247.960563 [cm-1]
     freq (   58) =       7.624564 [THz] =     254.328093 [cm-1]
     freq (   59) =       7.695618 [THz] =     256.698173 [cm-1]
     freq (   60) =       7.875596 [THz] =     262.701595 [cm-1]
     freq (   61) =       7.980693 [THz] =     266.207249 [cm-1]
     freq (   62) =       8.017413 [THz] =     267.432095 [cm-1]
     freq (   63) =       8.263826 [THz] =     275.651564 [cm-1]
     freq (   64) =       8.300305 [THz] =     276.868389 [cm-1]
     freq (   65) =       8.490854 [THz] =     283.224414 [cm-1]
     freq (   66) =       8.606990 [THz] =     287.098272 [cm-1]
 **************************************************************************

     Mode symmetry, C_2h (2/m)  point group:

     freq (   1-   1) =         42.6  [cm-1]   --> B_u                
     freq (   2-   2) =         51.0  [cm-1]   --> A_g                
     freq (   3-   3) =         52.0  [cm-1]   --> A_u                
     freq (   4-   4) =         54.0  [cm-1]   --> B_g                
     freq (   5-   5) =         56.5  [cm-1]   --> B_u                
     freq (   6-   6) =         57.9  [cm-1]   --> A_g                
     freq (   7-   7) =         66.4  [cm-1]   --> B_g                
     freq (   8-   8) =         67.4  [cm-1]   --> A_u                
     freq (   9-   9) =         72.0  [cm-1]   --> B_g                
     freq (  10-  10) =         73.3  [cm-1]   --> A_u                
     freq (  11-  11) =         88.6  [cm-1]   --> A_g                
     freq (  12-  12) =         89.5  [cm-1]   --> B_u                
     freq (  13-  13) =         89.7  [cm-1]   --> B_u                
     freq (  14-  14) =         90.6  [cm-1]   --> A_g                
     freq (  15-  15) =         92.9  [cm-1]   --> B_g                
     freq (  16-  16) =         96.0  [cm-1]   --> A_u                
     freq (  17-  17) =        104.2  [cm-1]   --> A_g                
     freq (  18-  18) =        108.2  [cm-1]   --> B_u                
     freq (  19-  19) =        108.4  [cm-1]   --> B_g                
     freq (  20-  20) =        109.2  [cm-1]   --> B_u                
     freq (  21-  21) =        110.2  [cm-1]   --> A_g                
     freq (  22-  22) =        112.2  [cm-1]   --> A_u                
     freq (  23-  23) =        113.1  [cm-1]   --> B_u                
     freq (  24-  24) =        119.9  [cm-1]   --> A_g                
     freq (  25-  25) =        125.1  [cm-1]   --> B_g                
     freq (  26-  26) =        126.3  [cm-1]   --> A_u                
     freq (  27-  27) =        130.2  [cm-1]   --> A_g                
     freq (  28-  28) =        130.3  [cm-1]   --> B_u                
     freq (  29-  29) =        137.3  [cm-1]   --> B_g                
     freq (  30-  30) =        137.8  [cm-1]   --> A_u                
     freq (  31-  31) =        139.9  [cm-1]   --> B_u                
     freq (  32-  32) =        140.4  [cm-1]   --> A_g                
     freq (  33-  33) =        142.6  [cm-1]   --> B_g                
     freq (  34-  34) =        143.2  [cm-1]   --> B_u                
     freq (  35-  35) =        143.4  [cm-1]   --> A_g                
     freq (  36-  36) =        144.7  [cm-1]   --> A_u                
     freq (  37-  37) =        151.8  [cm-1]   --> B_u                
     freq (  38-  38) =        152.2  [cm-1]   --> A_g                
     freq (  39-  39) =        152.3  [cm-1]   --> B_g                
     freq (  40-  40) =        153.8  [cm-1]   --> A_u                
     freq (  41-  41) =        156.6  [cm-1]   --> B_u                
     freq (  42-  42) =        158.1  [cm-1]   --> A_g                
     freq (  43-  43) =        168.9  [cm-1]   --> B_u                
     freq (  44-  44) =        170.7  [cm-1]   --> A_u                
     freq (  45-  45) =        171.1  [cm-1]   --> B_g                
     freq (  46-  46) =        171.9  [cm-1]   --> A_g                
     freq (  47-  47) =        172.6  [cm-1]   --> B_u                
     freq (  48-  48) =        193.8  [cm-1]   --> A_g                
     freq (  49-  49) =        197.9  [cm-1]   --> B_g                
     freq (  50-  50) =        197.9  [cm-1]   --> A_u                
     freq (  51-  51) =        215.4  [cm-1]   --> A_g                
     freq (  52-  52) =        215.4  [cm-1]   --> B_u                
     freq (  53-  53) =        223.0  [cm-1]   --> B_g                
     freq (  54-  54) =        223.4  [cm-1]   --> A_u                
     freq (  55-  55) =        238.1  [cm-1]   --> B_g                
     freq (  56-  56) =        240.1  [cm-1]   --> A_u                
     freq (  57-  57) =        248.0  [cm-1]   --> B_u                
     freq (  58-  58) =        254.3  [cm-1]   --> A_g                
     freq (  59-  59) =        256.7  [cm-1]   --> B_u                
     freq (  60-  60) =        262.7  [cm-1]   --> A_g                
     freq (  61-  61) =        266.2  [cm-1]   --> B_g                
     freq (  62-  62) =        267.4  [cm-1]   --> A_u                
     freq (  63-  63) =        275.7  [cm-1]   --> B_u                
     freq (  64-  64) =        276.9  [cm-1]   --> A_g                
     freq (  65-  65) =        283.2  [cm-1]   --> B_u                
     freq (  66-  66) =        287.1  [cm-1]   --> A_g                

     init_run     :      0.52s CPU      7.65s WALL (       1 calls)
     electrons    :    159.30s CPU    166.88s WALL (       1 calls)

     Called by init_run:
     wfcinit      :      0.00s CPU      5.63s WALL (       1 calls)
     potinit      :      0.08s CPU      1.55s WALL (       1 calls)
     hinit0       :      0.01s CPU      0.01s WALL (       1 calls)

     Called by electrons:
     c_bands      :    157.75s CPU    165.25s WALL (       1 calls)
     v_of_rho     :      0.12s CPU      0.13s WALL (       2 calls)

     Called by c_bands:
     init_us_2    :     33.87s CPU     35.42s WALL (    2799 calls)
     cegterg      :    101.01s CPU    107.23s WALL (      18 calls)

     Called by *egterg:
     cdiaghg      :     14.95s CPU     15.11s WALL (     315 calls)
     h_psi        :  18063.23s CPU  19591.83s WALL (  148718 calls)
     g_psi        :      0.34s CPU      0.35s WALL (     311 calls)

     Called by h_psi:
     h_psi:calbec :   3431.45s CPU   3504.63s WALL (  148718 calls)
     vloc_psi     :  11040.29s CPU  12436.08s WALL (  148718 calls)
     add_vuspsi   :   3260.42s CPU   3315.01s WALL (  148718 calls)

     General routines
     calbec       :   7202.77s CPU   7341.88s WALL (  297969 calls)
     fft          :    117.58s CPU    130.06s WALL (   19760 calls)
     ffts         :    552.03s CPU    562.44s WALL (   11682 calls)
     fftw         :  14651.57s CPU  16102.10s WALL (11158768 calls)
     davcio       :      3.38s CPU  10297.25s WALL (   25758 calls)

     Parallel routines

     PHONON       :  66058.99s CPU  86250.14s WALL

     INITIALIZATION: 
     phq_setup    :      0.29s CPU      0.61s WALL (       2 calls)
     phq_init     :     21.33s CPU     30.11s WALL (       2 calls)

     phq_init     :     21.33s CPU     30.11s WALL (       2 calls)
     init_vloc    :      0.04s CPU      0.04s WALL (       2 calls)
     init_us_1    :      0.00s CPU      0.00s WALL (       2 calls)
     init_us_2    :     33.87s CPU     35.42s WALL (    2799 calls)

     DYNAMICAL MATRIX:
     dynmat0      :     20.11s CPU     24.44s WALL (       2 calls)
     dynmat_us    :     13.71s CPU     14.57s WALL (       2 calls)
     d2ionq       :      0.89s CPU      0.90s WALL (       2 calls)
     phqscf       :  65782.92s CPU  85653.57s WALL (       2 calls)
     dynmatrix    :      5.22s CPU      5.31s WALL (       2 calls)

     phqscf       :  65782.92s CPU  85653.57s WALL (       2 calls)
     solve_linter :  65501.24s CPU  84822.21s WALL (     110 calls)
     sth_kernel   :  35678.80s CPU  42589.72s WALL (    1443 calls)
     h_prec       :   1912.92s CPU   1930.44s WALL (    2393 calls)
     apply_dpot_b :   3065.97s CPU   3153.90s WALL (    2416 calls)
     ortho        :    328.50s CPU    332.29s WALL (    2614 calls)
     cgsolve      :  27444.51s CPU  29141.51s WALL (    2614 calls)
     incdrhoscf   :   1600.86s CPU   1683.61s WALL (    2614 calls)
                                        0.00s GPU  (    2614 calls)
     dv_of_drho   :    157.12s CPU    169.86s WALL (    1664 calls)
     mix_pot      :   4572.45s CPU  11772.58s WALL (    1443 calls)
     ef_shift     :      6.79s CPU      9.13s WALL (     493 calls)
     ef_shift_wfc :      0.06s CPU     30.90s WALL (      44 calls)
     localdos     :    270.36s CPU    274.42s WALL (      44 calls)
     drhodv       :    279.10s CPU    383.80s WALL (     110 calls)
     psymdvscf    :   1262.08s CPU   1348.82s WALL (    1443 calls)

     dvqpsi_us    :    632.08s CPU    644.63s WALL (     198 calls)
                                        0.00s GPU  (     198 calls)
     dvqpsi_us_on :     61.07s CPU     62.35s WALL (     198 calls)

     add_vuspsi   :   3260.42s CPU   3315.01s WALL (  148718 calls)


      General routines
     calbec       :   7202.77s CPU   7341.88s WALL (  297969 calls)
     fft          :    117.58s CPU    130.06s WALL (   19760 calls)
     ffts         :    552.03s CPU    562.44s WALL (   11682 calls)
     fftw         :  14651.57s CPU  16102.10s WALL (11158768 calls)
     davcio       :      3.38s CPU  10297.25s WALL (   25758 calls)
     write_rec    :      6.41s CPU   4619.64s WALL (    1553 calls)

      Additional routines
     ch_psi       :  25480.32s CPU  27137.58s WALL (  148385 calls)
     last         :   6585.46s CPU   6702.26s WALL (  148385 calls)
     Hesh         :    404.42s CPU    411.37s WALL (  148385 calls)
     ch_psi_all_k :   6179.44s CPU   6289.77s WALL (  148385 calls)
                                        0.00s GPU  (  148385 calls)
     ch_psi_calbe :   3386.99s CPU   3447.43s WALL (  148385 calls)
                                        0.00s GPU  (  148385 calls)
     h_psi_bgrp   :  18063.79s CPU  19592.15s WALL (  148718 calls)
     h_psi        :  18063.23s CPU  19591.83s WALL (  148718 calls)
     h_psi:pot    :  17734.06s CPU  19256.77s WALL (  148718 calls)
     h_psi:calbec :   3431.45s CPU   3504.63s WALL (  148718 calls)
     s_psi_bgrp   :    637.41s CPU    649.46s WALL (  299384 calls)


     PHONON       :  66058.99s CPU  86250.15s WALL


   This run was terminated on:  21:21:37   8May2025            

=------------------------------------------------------------------------------=
   JOB DONE.
=------------------------------------------------------------------------------=
