
     Program PWSCF v.7.3.1 starts on  7May2025 at 21:20:18 

     This program is part of the open-source Quantum ESPRESSO suite
     for quantum simulation of materials; please cite
         "P. Giannozzi et al., J. Phys.:Condens. Matter 21 395502 (2009);
         "P. Giannozzi et al., J. Phys.:Condens. Matter 29 465901 (2017);
         "P. Giannozzi et al., J. Chem. Phys. 152 154105 (2020);
          URL http://www.quantum-espresso.org", 
     in publications or presentations arising from this work. More details at
     http://www.quantum-espresso.org/quote

     Parallel version (MPI & OpenMP), running on     384 processor cores
     Number of MPI processes:               384
     Threads/MPI process:                     1

     MPI processes distributed on     2 nodes
     338344 MiB available memory on the printing compute node when the environment starts

     Waiting for input...
     Reading input from standard input
Warning: card &CELL ignored
Warning: card / ignored
Warning: card &FCP ignored
Warning: card / ignored
Warning: card &RISM ignored
Warning: card / ignored

     Current dimensions of program PWSCF are:
     Max number of different atomic species (ntypx) = 10
     Max number of k-points (npk) =  40000
     Max angular momentum in pseudopotentials (lmaxx) =  4

     IMPORTANT: XC functional enforced from input :
     Exchange-correlation= PBE
                           (   1   4   3   4   0   0   0)
     Any further DFT definition will be discarded
     Please, verify this is what you really want

     Message from routine setup:
     using ibrav=0 with symmetry is DISCOURAGED, use correct ibrav instead

     K-points division:     npool     =      12
     R & G space division:  proc/nbgrp/npool/nimage =      32
     Subspace diagonalization in iterative solution of the eigenvalue problem:
     a serial algorithm will be used

     Message from routine divide_et_impera:
     suboptimal parallelization: some nodes have no k-points

     Parallelization info
     --------------------
     sticks:   dense  smooth     PW     G-vecs:    dense   smooth      PW
     Min         154     154     40                40066    40066    5474
     Max         155     155     41                40087    40087    5503
     Sum        4939    4939   1303              1282343  1282343  175515

     Using Slab Decomposition



     bravais-lattice index     =            0
     lattice parameter (alat)  =      13.3936  a.u.
     unit-cell volume          =    9490.8392 (a.u.)^3
     number of atoms/cell      =           22
     number of atomic types    =            2
     number of electrons       =       190.00
     number of Kohn-Sham states=          114
     kinetic-energy cutoff     =     100.0000  Ry
     charge density cutoff     =     400.0000  Ry
     scf convergence threshold =      1.0E-12
     mixing beta               =       0.7000
     number of iterations used =            8  plain     mixing
     Exchange-correlation= PBE
                           (   1   4   3   4   0   0   0)

     celldm(1)=  13.393593  celldm(2)=   0.000000  celldm(3)=   0.000000
     celldm(4)=   0.000000  celldm(5)=   0.000000  celldm(6)=   0.000000

     crystal axes: (cart. coord. in units of alat)
               a(1) = (   0.866025   0.500000   0.000000 )  
               a(2) = (  -0.866025   0.500000   0.000000 )  
               a(3) = (   0.000000   0.000000   4.561238 )  

     reciprocal axes: (cart. coord. in units 2 pi/alat)
               b(1) = (  0.577350  1.000000 -0.000000 )  
               b(2) = ( -0.577350  1.000000  0.000000 )  
               b(3) = (  0.000000 -0.000000  0.219239 )  


     PseudoPot. # 1 for Nb read from file:
     /scratch-shared/mroesner/Nb3X8_cDFPT/pp/Nb_ONCV_PBE-1.2.upf
     MD5 check sum: 2c750ac0b6910ff4cf0ab5f6c4124a64
     Pseudo is Norm-conserving, Zval = 13.0
     Generated using ONCVPSP code by D. R. Hamann
     Using radial grid of  602 points,  6 beta functions with: 
                l(1) =   0
                l(2) =   0
                l(3) =   1
                l(4) =   1
                l(5) =   2
                l(6) =   2

     PseudoPot. # 2 for Br read from file:
     /scratch-shared/mroesner/Nb3X8_cDFPT/pp/Br_ONCV_PBE-1.2.upf
     MD5 check sum: 5b50323dbf1c0ae0ed9e7f1e72c3f86c
     Pseudo is Norm-conserving, Zval =  7.0
     Generated using ONCVPSP code by D. R. Hamann
     Using radial grid of  602 points,  6 beta functions with: 
                l(1) =   0
                l(2) =   0
                l(3) =   1
                l(4) =   1
                l(5) =   2
                l(6) =   2

     atomic species   valence    mass     pseudopotential
     Nb               13.00    92.90637     Nb( 1.00)
     Br                7.00    79.90400     Br( 1.00)

     12 Sym. Ops., with inversion, found


                                    s                        frac. trans.

      isym =  1     identity                                     

 cryst.   s( 1) = (     1          0          0      )
                  (     0          1          0      )
                  (     0          0          1      )

 cart.    s( 1) = (  1.0000000 -0.0000000  0.0000000 )
                  (  0.0000000  1.0000000  0.0000000 )
                  (  0.0000000  0.0000000  1.0000000 )


      isym =  2     180 deg rotation - cart. axis [0,1,0]        

 cryst.   s( 2) = (     0          1          0      )
                  (     1          0          0      )
                  (     0          0         -1      )

 cart.    s( 2) = ( -1.0000000 -0.0000000  0.0000000 )
                  ( -0.0000000  1.0000000  0.0000000 )
                  (  0.0000000  0.0000000 -1.0000000 )


      isym =  3     120 deg rotation - cryst. axis [0,0,1]       

 cryst.   s( 3) = (     0          1          0      )
                  (    -1         -1          0      )
                  (     0          0          1      )

 cart.    s( 3) = ( -0.5000000 -0.8660254  0.0000000 )
                  (  0.8660254 -0.5000000  0.0000000 )
                  (  0.0000000  0.0000000  1.0000000 )


      isym =  4     120 deg rotation - cryst. axis [0,0,-1]      

 cryst.   s( 4) = (    -1         -1          0      )
                  (     1          0          0      )
                  (     0          0          1      )

 cart.    s( 4) = ( -0.5000000  0.8660254  0.0000000 )
                  ( -0.8660254 -0.5000000  0.0000000 )
                  (  0.0000000  0.0000000  1.0000000 )


      isym =  5     180 deg rotation - cryst. axis [1,-1,0]      

 cryst.   s( 5) = (    -1         -1          0      )
                  (     0          1          0      )
                  (     0          0         -1      )

 cart.    s( 5) = (  0.5000000 -0.8660254  0.0000000 )
                  ( -0.8660254 -0.5000000  0.0000000 )
                  (  0.0000000  0.0000000 -1.0000000 )


      isym =  6     180 deg rotation - cryst. axis [2,1,0]       

 cryst.   s( 6) = (     1          0          0      )
                  (    -1         -1          0      )
                  (     0          0         -1      )

 cart.    s( 6) = (  0.5000000  0.8660254  0.0000000 )
                  (  0.8660254 -0.5000000  0.0000000 )
                  (  0.0000000  0.0000000 -1.0000000 )


      isym =  7     inversion                                    

 cryst.   s( 7) = (    -1          0          0      )
                  (     0         -1          0      )
                  (     0          0         -1      )

 cart.    s( 7) = ( -1.0000000  0.0000000  0.0000000 )
                  ( -0.0000000 -1.0000000  0.0000000 )
                  (  0.0000000  0.0000000 -1.0000000 )


      isym =  8     inv. 180 deg rotation - cart. axis [0,1,0]   

 cryst.   s( 8) = (     0         -1          0      )
                  (    -1          0          0      )
                  (     0          0          1      )

 cart.    s( 8) = (  1.0000000  0.0000000  0.0000000 )
                  (  0.0000000 -1.0000000  0.0000000 )
                  (  0.0000000  0.0000000  1.0000000 )


      isym =  9     inv. 120 deg rotation - cryst. axis [0,0,1]  

 cryst.   s( 9) = (     0         -1          0      )
                  (     1          1          0      )
                  (     0          0         -1      )

 cart.    s( 9) = (  0.5000000  0.8660254  0.0000000 )
                  ( -0.8660254  0.5000000  0.0000000 )
                  (  0.0000000  0.0000000 -1.0000000 )


      isym = 10     inv. 120 deg rotation - cryst. axis [0,0,-1] 

 cryst.   s(10) = (     1          1          0      )
                  (    -1          0          0      )
                  (     0          0         -1      )

 cart.    s(10) = (  0.5000000 -0.8660254  0.0000000 )
                  (  0.8660254  0.5000000  0.0000000 )
                  (  0.0000000  0.0000000 -1.0000000 )


      isym = 11     inv. 180 deg rotation - cryst. axis [1,-1,0] 

 cryst.   s(11) = (     1          1          0      )
                  (     0         -1          0      )
                  (     0          0          1      )

 cart.    s(11) = ( -0.5000000  0.8660254  0.0000000 )
                  (  0.8660254  0.5000000  0.0000000 )
                  (  0.0000000  0.0000000  1.0000000 )


      isym = 12     inv. 180 deg rotation - cryst. axis [2,1,0]  

 cryst.   s(12) = (    -1          0          0      )
                  (     1          1          0      )
                  (     0          0          1      )

 cart.    s(12) = ( -0.5000000 -0.8660254  0.0000000 )
                  ( -0.8660254  0.5000000  0.0000000 )
                  (  0.0000000  0.0000000  1.0000000 )


   Cartesian axes

     site n.     atom                  positions (alat units)
         1        Nb     tau(   1) = (   0.2339559   0.0000000  -0.4644863  )
         2        Nb     tau(   2) = (  -0.1169779   0.2026117  -0.4644863  )
         3        Nb     tau(   3) = (  -0.1169779  -0.2026117  -0.4644863  )
         4        Nb     tau(   4) = (  -0.2339559  -0.0000000   0.4644863  )
         5        Nb     tau(   5) = (   0.1169779  -0.2026117   0.4644863  )
         6        Nb     tau(   6) = (   0.1169779   0.2026117   0.4644863  )
         7        Br     tau(   7) = (   0.0000000  -0.0000000  -0.7452599  )
         8        Br     tau(   8) = (  -0.8622048  -0.0000000  -0.6691649  )
         9        Br     tau(   9) = (  -0.4349230  -0.2466912  -0.6691649  )
        10        Br     tau(  10) = (  -0.4349230   0.2466912  -0.6691649  )
        11        Br     tau(  11) = (   0.5773503  -0.0000000  -0.2634304  )
        12        Br     tau(  12) = (  -0.2882750  -0.0000000  -0.2171151  )
        13        Br     tau(  13) = (   0.1441375  -0.2496535  -0.2171151  )
        14        Br     tau(  14) = (   0.1441375   0.2496535  -0.2171151  )
        15        Br     tau(  15) = (   0.2882750   0.0000000   0.2171151  )
        16        Br     tau(  16) = (  -0.1441375   0.2496535   0.2171151  )
        17        Br     tau(  17) = (  -0.1441375  -0.2496535   0.2171151  )
        18        Br     tau(  18) = (  -0.5773503   0.0000000   0.2634304  )
        19        Br     tau(  19) = (   0.8622048   0.0000000   0.6691649  )
        20        Br     tau(  20) = (   0.4349230   0.2466912   0.6691649  )
        21        Br     tau(  21) = (   0.4349230  -0.2466912   0.6691649  )
        22        Br     tau(  22) = (   0.0000000   0.0000000   0.7452599  )

     --------------------------------------------
     DFT-D3 Dispersion Correction (no 3-body):
     --------------------------------------------
       Reference C6 values for interpolation: 

         atom   Coordination number   C6
         Br         0.000           334.26
         Br         0.997           338.48
         Nb         0.000          2950.50
         Nb         1.954          1161.16
         Nb         2.922           857.79

       Values used:

         atom   Coordination number  R0_AB[au]  C6      C8
         Nb         8.083            3.647    857.79 111659.18
         Nb         8.083            3.647    857.79 111659.18
         Nb         8.083            3.647    857.79 111659.18
         Nb         8.083            3.647    857.79 111659.18
         Nb         8.083            3.647    857.79 111659.18
         Nb         8.083            3.647    857.79 111659.18
         Br         3.488            3.181    338.47  21401.43
         Br         2.744            3.181    338.47  21401.43
         Br         2.744            3.181    338.47  21401.43
         Br         2.744            3.181    338.47  21401.43
         Br         3.703            3.181    338.47  21401.43
         Br         2.839            3.181    338.47  21401.43
         Br         2.839            3.181    338.47  21401.43
         Br         2.839            3.181    338.47  21401.43
         Br         2.839            3.181    338.47  21401.43
         Br         2.839            3.181    338.47  21401.43
         Br         2.839            3.181    338.47  21401.43
         Br         3.703            3.181    338.47  21401.43
         Br         2.744            3.181    338.47  21401.43
         Br         2.744            3.181    338.47  21401.43
         Br         2.744            3.181    338.47  21401.43
         Br         3.488            3.181    338.47  21401.43

         Molecular C6 ( Ry / a.u.^6 ) =    219379.98


   Crystallographic axes

     site n.     atom                  positions (cryst. coord.)
         1        Nb     tau(   1) = (  0.1350745 -0.1350745 -0.1018334  )
         2        Nb     tau(   2) = (  0.1350745  0.2701490 -0.1018334  )
         3        Nb     tau(   3) = ( -0.2701490 -0.1350745 -0.1018334  )
         4        Nb     tau(   4) = ( -0.1350745  0.1350745  0.1018334  )
         5        Nb     tau(   5) = ( -0.1350745 -0.2701490  0.1018334  )
         6        Nb     tau(   6) = (  0.2701490  0.1350745  0.1018334  )
         7        Br     tau(   7) = (  0.0000000 -0.0000000 -0.1633898  )
         8        Br     tau(   8) = ( -0.4977942  0.4977942 -0.1467069  )
         9        Br     tau(   9) = ( -0.4977942  0.0044117 -0.1467069  )
        10        Br     tau(  10) = ( -0.0044117  0.4977942 -0.1467069  )
        11        Br     tau(  11) = (  0.3333333 -0.3333333 -0.0577541  )
        12        Br     tau(  12) = ( -0.1664357  0.1664357 -0.0476000  )
        13        Br     tau(  13) = ( -0.1664357 -0.3328713 -0.0476000  )
        14        Br     tau(  14) = (  0.3328713  0.1664357 -0.0476000  )
        15        Br     tau(  15) = (  0.1664357 -0.1664357  0.0476000  )
        16        Br     tau(  16) = (  0.1664357  0.3328713  0.0476000  )
        17        Br     tau(  17) = ( -0.3328713 -0.1664357  0.0476000  )
        18        Br     tau(  18) = ( -0.3333333  0.3333333  0.0577541  )
        19        Br     tau(  19) = (  0.4977942 -0.4977942  0.1467069  )
        20        Br     tau(  20) = (  0.4977942 -0.0044117  0.1467069  )
        21        Br     tau(  21) = (  0.0044117 -0.4977942  0.1467069  )
        22        Br     tau(  22) = (  0.0000000  0.0000000  0.1633898  )

     number of k points=     7  Gaussian smearing, width (Ry)=  0.0037
                       cart. coord. in units 2pi/alat
        k(    1) = (   0.0000000   0.0000000   0.0000000), wk =   0.0555556
        k(    2) = (  -0.0962250   0.1666667   0.0000000), wk =   0.3333333
        k(    3) = (  -0.1924501   0.3333333   0.0000000), wk =   0.3333333
        k(    4) = (   0.2886751  -0.5000000   0.0000000), wk =   0.1666667
        k(    5) = (  -0.0000000   0.3333333   0.0000000), wk =   0.3333333
        k(    6) = (  -0.0962250   0.5000000   0.0000000), wk =   0.6666667
        k(    7) = (  -0.0000000   0.6666667   0.0000000), wk =   0.1111111

                       cryst. coord.
        k(    1) = (   0.0000000   0.0000000   0.0000000), wk =   0.0555556
        k(    2) = (  -0.0000000   0.1666667   0.0000000), wk =   0.3333333
        k(    3) = (  -0.0000000   0.3333333   0.0000000), wk =   0.3333333
        k(    4) = (   0.0000000  -0.5000000   0.0000000), wk =   0.1666667
        k(    5) = (   0.1666667   0.1666667   0.0000000), wk =   0.3333333
        k(    6) = (   0.1666667   0.3333333   0.0000000), wk =   0.6666667
        k(    7) = (   0.3333333   0.3333333   0.0000000), wk =   0.1111111

     Dense  grid:  1282343 G-vectors     FFT dimensions: (  90,  90, 400)

     Dynamical RAM for                 wfc:       8.71 MB

     Dynamical RAM for     wfc (w. buffer):       8.71 MB

     Dynamical RAM for           str. fact:       1.22 MB

     Dynamical RAM for           local pot:       0.00 MB

     Dynamical RAM for          nlocal pot:      30.26 MB

     Dynamical RAM for                qrad:       3.21 MB

     Dynamical RAM for          rho,v,vnew:       4.24 MB

     Dynamical RAM for               rhoin:       1.41 MB

     Dynamical RAM for            rho*nmix:       9.78 MB

     Dynamical RAM for           G-vectors:       2.60 MB

     Dynamical RAM for          h,s,v(r/c):       2.38 MB

     Dynamical RAM for          <psi|beta>:       0.69 MB

     Dynamical RAM for                 psi:      17.42 MB

     Dynamical RAM for                hpsi:      17.42 MB

     Dynamical RAM for      wfcinit/wfcrot:      17.72 MB

     Estimated static dynamical RAM per process >      57.51 MB

     Estimated max dynamical RAM per process >     105.21 MB

     Estimated total dynamical RAM >      36.09 GB

     Initial potential from superposition of free atoms

     starting charge     189.1494, renormalised to     190.0000

     negative rho (up, down):  1.608E-03 0.000E+00
     Starting wfcs are random

     total cpu time spent up to now is        5.5 secs

     per-process dynamical memory:   214.2 Mb

     Self-consistent Calculation

     iteration #  1     ecut=   100.00 Ry     beta= 0.70
     Davidson diagonalization with overlap

---- Real-time Memory Report at c_bands before calling an iterative solver
           243 MiB given to the printing process from OS
           209 MiB allocation reported by mallinfo(arena+hblkhd)
        320224 MiB available memory on the node where the printing process lives
------------------
     c_bands:  2 eigenvalues not converged
     ethr =  1.00E-02,  avg # of iterations = 19.6

     Threshold (ethr) on eigenvalues was too large:
     Diagonalizing with lowered threshold

     Davidson diagonalization with overlap

---- Real-time Memory Report at c_bands before calling an iterative solver
           269 MiB given to the printing process from OS
           210 MiB allocation reported by mallinfo(arena+hblkhd)
        318506 MiB available memory on the node where the printing process lives
------------------
     c_bands:  2 eigenvalues not converged
     ethr =  4.44E-04,  avg # of iterations = 19.3

     negative rho (up, down):  1.544E-04 0.000E+00

     total cpu time spent up to now is       17.0 secs

     total energy              =   -1117.94047095 Ry
     estimated scf accuracy    <       0.65979278 Ry

     iteration #  2     ecut=   100.00 Ry     beta= 0.70
     Davidson diagonalization with overlap

---- Real-time Memory Report at c_bands before calling an iterative solver
           269 MiB given to the printing process from OS
           205 MiB allocation reported by mallinfo(arena+hblkhd)
        321178 MiB available memory on the node where the printing process lives
------------------
     ethr =  3.47E-04,  avg # of iterations =  5.7

     negative rho (up, down):  9.435E-05 0.000E+00

     total cpu time spent up to now is       19.6 secs

     total energy              =   -1117.99891580 Ry
     estimated scf accuracy    <       0.84728985 Ry

     iteration #  3     ecut=   100.00 Ry     beta= 0.70
     Davidson diagonalization with overlap

---- Real-time Memory Report at c_bands before calling an iterative solver
           279 MiB given to the printing process from OS
           206 MiB allocation reported by mallinfo(arena+hblkhd)
        320730 MiB available memory on the node where the printing process lives
------------------
     ethr =  3.47E-04,  avg # of iterations =  5.4

     negative rho (up, down):  5.468E-05 0.000E+00

     total cpu time spent up to now is       22.2 secs

     total energy              =   -1118.16319301 Ry
     estimated scf accuracy    <       0.27949983 Ry

     iteration #  4     ecut=   100.00 Ry     beta= 0.70
     Davidson diagonalization with overlap

---- Real-time Memory Report at c_bands before calling an iterative solver
           281 MiB given to the printing process from OS
           208 MiB allocation reported by mallinfo(arena+hblkhd)
        320882 MiB available memory on the node where the printing process lives
------------------
     ethr =  1.47E-04,  avg # of iterations =  4.3

     negative rho (up, down):  3.100E-05 0.000E+00

     total cpu time spent up to now is       24.2 secs

     total energy              =   -1118.21323814 Ry
     estimated scf accuracy    <       0.03716349 Ry

     iteration #  5     ecut=   100.00 Ry     beta= 0.70
     Davidson diagonalization with overlap

---- Real-time Memory Report at c_bands before calling an iterative solver
           283 MiB given to the printing process from OS
           209 MiB allocation reported by mallinfo(arena+hblkhd)
        320811 MiB available memory on the node where the printing process lives
------------------
     c_bands:  1 eigenvalues not converged
     ethr =  1.96E-05,  avg # of iterations = 10.4

     negative rho (up, down):  7.493E-06 0.000E+00

     total cpu time spent up to now is       27.9 secs

     total energy              =   -1118.22482444 Ry
     estimated scf accuracy    <       0.01038538 Ry

     iteration #  6     ecut=   100.00 Ry     beta= 0.70
     Davidson diagonalization with overlap

---- Real-time Memory Report at c_bands before calling an iterative solver
           286 MiB given to the printing process from OS
           210 MiB allocation reported by mallinfo(arena+hblkhd)
        320679 MiB available memory on the node where the printing process lives
------------------
     ethr =  5.47E-06,  avg # of iterations = 12.1

     negative rho (up, down):  5.224E-07 0.000E+00

     total cpu time spent up to now is       30.9 secs

     total energy              =   -1118.22727947 Ry
     estimated scf accuracy    <       0.00058179 Ry

     iteration #  7     ecut=   100.00 Ry     beta= 0.70
     Davidson diagonalization with overlap

---- Real-time Memory Report at c_bands before calling an iterative solver
           286 MiB given to the printing process from OS
           211 MiB allocation reported by mallinfo(arena+hblkhd)
        320650 MiB available memory on the node where the printing process lives
------------------
     ethr =  3.06E-07,  avg # of iterations = 20.9

     total cpu time spent up to now is       36.2 secs

     total energy              =   -1118.22803353 Ry
     estimated scf accuracy    <       0.00011300 Ry

     iteration #  8     ecut=   100.00 Ry     beta= 0.70
     Davidson diagonalization with overlap

---- Real-time Memory Report at c_bands before calling an iterative solver
           288 MiB given to the printing process from OS
           213 MiB allocation reported by mallinfo(arena+hblkhd)
        320741 MiB available memory on the node where the printing process lives
------------------
     ethr =  5.95E-08,  avg # of iterations =  9.6

     negative rho (up, down):  4.475E-07 0.000E+00

     total cpu time spent up to now is       39.3 secs

     total energy              =   -1118.22808523 Ry
     estimated scf accuracy    <       0.00001335 Ry

     iteration #  9     ecut=   100.00 Ry     beta= 0.70
     Davidson diagonalization with overlap

---- Real-time Memory Report at c_bands before calling an iterative solver
           288 MiB given to the printing process from OS
           214 MiB allocation reported by mallinfo(arena+hblkhd)
        320612 MiB available memory on the node where the printing process lives
------------------
     ethr =  7.03E-09,  avg # of iterations = 16.4

     negative rho (up, down):  1.902E-07 0.000E+00

     total cpu time spent up to now is       42.8 secs

     total energy              =   -1118.22809584 Ry
     estimated scf accuracy    <       0.00000493 Ry

     iteration # 10     ecut=   100.00 Ry     beta= 0.70
     Davidson diagonalization with overlap

---- Real-time Memory Report at c_bands before calling an iterative solver
           292 MiB given to the printing process from OS
           215 MiB allocation reported by mallinfo(arena+hblkhd)
        320570 MiB available memory on the node where the printing process lives
------------------
     ethr =  2.60E-09,  avg # of iterations = 10.1

     total cpu time spent up to now is       48.7 secs

     total energy              =   -1118.22809670 Ry
     estimated scf accuracy    <       0.00000030 Ry

     iteration # 11     ecut=   100.00 Ry     beta= 0.70
     Davidson diagonalization with overlap

---- Real-time Memory Report at c_bands before calling an iterative solver
           293 MiB given to the printing process from OS
           215 MiB allocation reported by mallinfo(arena+hblkhd)
        320594 MiB available memory on the node where the printing process lives
------------------
     c_bands:  3 eigenvalues not converged
     ethr =  1.59E-10,  avg # of iterations = 18.7

     total cpu time spent up to now is       53.1 secs

     total energy              =   -1118.22809699 Ry
     estimated scf accuracy    <       0.00000012 Ry

     iteration # 12     ecut=   100.00 Ry     beta= 0.70
     Davidson diagonalization with overlap

---- Real-time Memory Report at c_bands before calling an iterative solver
           293 MiB given to the printing process from OS
           215 MiB allocation reported by mallinfo(arena+hblkhd)
        320575 MiB available memory on the node where the printing process lives
------------------
     ethr =  6.55E-11,  avg # of iterations = 16.4

     total cpu time spent up to now is       56.0 secs

     total energy              =   -1118.22809702 Ry
     estimated scf accuracy    <          6.8E-09 Ry

     iteration # 13     ecut=   100.00 Ry     beta= 0.70
     Davidson diagonalization with overlap

---- Real-time Memory Report at c_bands before calling an iterative solver
           293 MiB given to the printing process from OS
           215 MiB allocation reported by mallinfo(arena+hblkhd)
        320624 MiB available memory on the node where the printing process lives
------------------
     c_bands:  1 eigenvalues not converged
     ethr =  3.56E-12,  avg # of iterations = 17.7

     total cpu time spent up to now is       59.5 secs

     total energy              =   -1118.22809702 Ry
     estimated scf accuracy    <          7.4E-10 Ry

     iteration # 14     ecut=   100.00 Ry     beta= 0.70
     Davidson diagonalization with overlap

---- Real-time Memory Report at c_bands before calling an iterative solver
           293 MiB given to the printing process from OS
           215 MiB allocation reported by mallinfo(arena+hblkhd)
        320633 MiB available memory on the node where the printing process lives
------------------
     ethr =  3.91E-13,  avg # of iterations = 13.3

     total cpu time spent up to now is       62.9 secs

     total energy              =   -1118.22809702 Ry
     estimated scf accuracy    <          5.0E-10 Ry

     iteration # 15     ecut=   100.00 Ry     beta= 0.70
     Davidson diagonalization with overlap

---- Real-time Memory Report at c_bands before calling an iterative solver
           293 MiB given to the printing process from OS
           215 MiB allocation reported by mallinfo(arena+hblkhd)
        320658 MiB available memory on the node where the printing process lives
------------------
     ethr =  2.61E-13,  avg # of iterations = 12.4

     total cpu time spent up to now is       65.8 secs

     total energy              =   -1118.22809702 Ry
     estimated scf accuracy    <          3.8E-11 Ry

     iteration # 16     ecut=   100.00 Ry     beta= 0.70
     Davidson diagonalization with overlap

---- Real-time Memory Report at c_bands before calling an iterative solver
           293 MiB given to the printing process from OS
           215 MiB allocation reported by mallinfo(arena+hblkhd)
        320623 MiB available memory on the node where the printing process lives
------------------
     ethr =  1.00E-13,  avg # of iterations =  7.1

     total cpu time spent up to now is       68.2 secs

     total energy              =   -1118.22809702 Ry
     estimated scf accuracy    <          2.8E-12 Ry

     iteration # 17     ecut=   100.00 Ry     beta= 0.70
     Davidson diagonalization with overlap

---- Real-time Memory Report at c_bands before calling an iterative solver
           293 MiB given to the printing process from OS
           215 MiB allocation reported by mallinfo(arena+hblkhd)
        320664 MiB available memory on the node where the printing process lives
------------------
     ethr =  1.00E-13,  avg # of iterations =  3.9

     total cpu time spent up to now is       70.4 secs

     End of self-consistent calculation

          k = 0.0000 0.0000 0.0000 (160347 PWs)   bands (ev):

   -55.3998 -55.3998 -55.3237 -55.3237 -55.3237 -55.3237 -31.7552 -31.7552
   -31.5889 -31.5889 -31.5864 -31.5864 -31.5864 -31.5864 -31.4923 -31.4923
   -31.4923 -31.4923 -31.2726 -31.2726 -31.1262 -31.1262 -31.1262 -31.1262
   -16.5455 -16.5267 -16.1561 -15.9883 -15.5413 -15.5413 -15.5125 -15.4954
   -15.4545 -15.4545 -15.2171 -15.2001 -14.8474 -14.8474 -14.8464 -14.8464
    -6.1325  -6.1325  -6.0452  -6.0452  -5.9003  -5.6425  -5.5718  -5.5633
    -5.2334  -5.2326  -5.2326  -5.2091  -5.2091  -4.9647  -4.8009  -4.6767
    -4.6133  -4.6133  -4.2853  -4.2853  -3.8557  -3.7532  -3.5984  -3.5984
    -3.5628  -3.5628  -3.4289  -3.3472  -3.3026  -3.3026  -3.2434  -3.2434
    -3.0489  -3.0489  -2.9620  -2.9534  -2.8695  -2.8695  -2.8470  -2.4686
    -2.2111  -2.2111  -2.1661  -2.1661  -1.4887  -1.4887  -1.4711  -1.4711
    -1.2213  -1.1067  -0.5897  -0.5897  -0.5646  -0.5646   0.3965   0.6170
     1.3551   1.3551   1.3658   1.3658   1.8785   2.1172   2.1458   2.1458
     2.2072   2.2072   2.5324   2.6144   2.6144   2.6318   2.6318   2.6419
     2.7507   2.7507

     occupation numbers 
     1.0000   1.0000   1.0000   1.0000   1.0000   1.0000   1.0000   1.0000
     1.0000   1.0000   1.0000   1.0000   1.0000   1.0000   1.0000   1.0000
     1.0000   1.0000   1.0000   1.0000   1.0000   1.0000   1.0000   1.0000
     1.0000   1.0000   1.0000   1.0000   1.0000   1.0000   1.0000   1.0000
     1.0000   1.0000   1.0000   1.0000   1.0000   1.0000   1.0000   1.0000
     1.0000   1.0000   1.0000   1.0000   1.0000   1.0000   1.0000   1.0000
     1.0000   1.0000   1.0000   1.0000   1.0000   1.0000   1.0000   1.0000
     1.0000   1.0000   1.0000   1.0000   1.0000   1.0000   1.0000   1.0000
     1.0000   1.0000   1.0000   1.0000   1.0000   1.0000   1.0000   1.0000
     1.0000   1.0000   1.0000   1.0000   1.0000   1.0000   1.0000   1.0000
     1.0000   1.0000   1.0000   1.0000   1.0000   1.0000   1.0000   1.0000
     1.0000   1.0000   1.0000   1.0000   1.0000   1.0000   0.9986   0.0006
     0.0000   0.0000   0.0000   0.0000   0.0000   0.0000   0.0000   0.0000
     0.0000   0.0000   0.0000   0.0000   0.0000   0.0000   0.0000   0.0000
     0.0000   0.0000

          k =-0.0962 0.1667 0.0000 (160353 PWs)   bands (ev):

   -55.3997 -55.3997 -55.3238 -55.3238 -55.3237 -55.3237 -31.7523 -31.7523
   -31.5880 -31.5880 -31.5858 -31.5858 -31.5842 -31.5842 -31.4932 -31.4932
   -31.4923 -31.4923 -31.2742 -31.2742 -31.1303 -31.1303 -31.1270 -31.1270
   -16.5252 -16.5108 -16.1297 -15.9620 -15.5910 -15.5426 -15.5249 -15.5078
   -15.4720 -15.4533 -15.2026 -15.1875 -14.8748 -14.8735 -14.8482 -14.8473
    -6.0355  -6.0261  -5.9890  -5.9548  -5.7223  -5.5666  -5.5362  -5.4993
    -5.3044  -5.2549  -5.1658  -5.1547  -5.0319  -4.9212  -4.7637  -4.6344
    -4.6316  -4.5720  -4.3091  -4.3011  -3.8629  -3.8003  -3.7475  -3.7038
    -3.5861  -3.5673  -3.5671  -3.5224  -3.4020  -3.3453  -3.2624  -3.1917
    -3.0950  -3.0544  -3.0315  -2.9956  -2.9016  -2.8510  -2.8326  -2.4887
    -2.4097  -2.3052  -2.2481  -2.1525  -1.7620  -1.7314  -1.5500  -1.5150
    -1.2659  -1.1799  -0.6008  -0.5754  -0.5662  -0.5456   0.3800   0.6468
     1.3725   1.3745   1.3769   1.3786   1.8799   2.0449   2.0930   2.1170
     2.1915   2.1968   2.3550   2.4447   2.4648   2.5296   2.5652   2.6178
     2.8307   2.9019

     occupation numbers 
     1.0000   1.0000   1.0000   1.0000   1.0000   1.0000   1.0000   1.0000
     1.0000   1.0000   1.0000   1.0000   1.0000   1.0000   1.0000   1.0000
     1.0000   1.0000   1.0000   1.0000   1.0000   1.0000   1.0000   1.0000
     1.0000   1.0000   1.0000   1.0000   1.0000   1.0000   1.0000   1.0000
     1.0000   1.0000   1.0000   1.0000   1.0000   1.0000   1.0000   1.0000
     1.0000   1.0000   1.0000   1.0000   1.0000   1.0000   1.0000   1.0000
     1.0000   1.0000   1.0000   1.0000   1.0000   1.0000   1.0000   1.0000
     1.0000   1.0000   1.0000   1.0000   1.0000   1.0000   1.0000   1.0000
     1.0000   1.0000   1.0000   1.0000   1.0000   1.0000   1.0000   1.0000
     1.0000   1.0000   1.0000   1.0000   1.0000   1.0000   1.0000   1.0000
     1.0000   1.0000   1.0000   1.0000   1.0000   1.0000   1.0000   1.0000
     1.0000   1.0000   1.0000   1.0000   1.0000   1.0000   0.9997   0.0000
     0.0000   0.0000   0.0000   0.0000   0.0000   0.0000   0.0000   0.0000
     0.0000   0.0000   0.0000   0.0000   0.0000   0.0000   0.0000   0.0000
     0.0000   0.0000

          k =-0.1925 0.3333 0.0000 (160313 PWs)   bands (ev):

   -55.3994 -55.3994 -55.3240 -55.3240 -55.3237 -55.3237 -31.7464 -31.7464
   -31.5862 -31.5862 -31.5845 -31.5845 -31.5796 -31.5796 -31.4950 -31.4950
   -31.4924 -31.4924 -31.2774 -31.2774 -31.1386 -31.1386 -31.1286 -31.1286
   -16.4855 -16.4791 -16.0442 -15.8831 -15.7244 -15.6085 -15.5450 -15.5226
   -15.4823 -15.4509 -15.1663 -15.1571 -14.9351 -14.9336 -14.8497 -14.8491
    -5.8023  -5.7993  -5.7667  -5.7520  -5.5686  -5.5144  -5.2963  -5.2722
    -5.2208  -5.1178  -5.0526  -5.0183  -4.8110  -4.7773  -4.7115  -4.6933
    -4.6150  -4.4746  -4.4329  -4.3605  -4.0753  -4.0004  -3.9345  -3.8602
    -3.7912  -3.7763  -3.6644  -3.5523  -3.5167  -3.4810  -3.4310  -3.2811
    -3.1954  -3.1819  -3.1627  -3.1074  -2.8779  -2.8123  -2.7583  -2.7458
    -2.6094  -2.4483  -2.3312  -2.2201  -2.2018  -2.1849  -1.6466  -1.6062
    -1.3489  -1.3099  -0.6320  -0.6136  -0.5279  -0.5041   0.3118   0.6406
     1.4005   1.4043   1.4210   1.4405   1.8273   1.8985   2.0104   2.0343
     2.0765   2.1164   2.2259   2.3118   2.4188   2.5271   2.5344   2.5669
     2.7552   2.8400

     occupation numbers 
     1.0000   1.0000   1.0000   1.0000   1.0000   1.0000   1.0000   1.0000
     1.0000   1.0000   1.0000   1.0000   1.0000   1.0000   1.0000   1.0000
     1.0000   1.0000   1.0000   1.0000   1.0000   1.0000   1.0000   1.0000
     1.0000   1.0000   1.0000   1.0000   1.0000   1.0000   1.0000   1.0000
     1.0000   1.0000   1.0000   1.0000   1.0000   1.0000   1.0000   1.0000
     1.0000   1.0000   1.0000   1.0000   1.0000   1.0000   1.0000   1.0000
     1.0000   1.0000   1.0000   1.0000   1.0000   1.0000   1.0000   1.0000
     1.0000   1.0000   1.0000   1.0000   1.0000   1.0000   1.0000   1.0000
     1.0000   1.0000   1.0000   1.0000   1.0000   1.0000   1.0000   1.0000
     1.0000   1.0000   1.0000   1.0000   1.0000   1.0000   1.0000   1.0000
     1.0000   1.0000   1.0000   1.0000   1.0000   1.0000   1.0000   1.0000
     1.0000   1.0000   1.0000   1.0000   1.0000   1.0000   1.0000   0.0000
     0.0000   0.0000   0.0000   0.0000   0.0000   0.0000   0.0000   0.0000
     0.0000   0.0000   0.0000   0.0000   0.0000   0.0000   0.0000   0.0000
     0.0000   0.0000

          k = 0.2887-0.5000 0.0000 (160226 PWs)   bands (ev):

   -55.3993 -55.3993 -55.3242 -55.3242 -55.3237 -55.3237 -31.7434 -31.7434
   -31.5854 -31.5853 -31.5837 -31.5837 -31.5773 -31.5773 -31.4959 -31.4959
   -31.4924 -31.4924 -31.2791 -31.2791 -31.1428 -31.1428 -31.1294 -31.1294
   -16.4664 -16.4635 -15.9066 -15.8960 -15.7660 -15.7247 -15.5462 -15.5259
   -15.4844 -15.4498 -15.1398 -15.1363 -14.9726 -14.9695 -14.8505 -14.8500
    -5.6554  -5.6505  -5.6444  -5.6390  -5.5455  -5.4058  -5.2229  -5.1963
    -5.1116  -4.9756  -4.9688  -4.8829  -4.7086  -4.7081  -4.6554  -4.6543
    -4.5519  -4.5396  -4.4375  -4.3730  -4.2050  -4.1774  -4.1189  -4.0287
    -3.9280  -3.8821  -3.6389  -3.6277  -3.5921  -3.5215  -3.4892  -3.4490
    -3.3916  -3.2729  -3.2150  -3.1846  -2.8388  -2.8242  -2.7195  -2.6990
    -2.6159  -2.4808  -2.4346  -2.4147  -2.3945  -2.2596  -1.6885  -1.6434
    -1.3784  -1.3756  -0.6497  -0.6440  -0.5031  -0.4940   0.2651   0.6158
     1.4167   1.4209   1.4597   1.4837   1.7611   1.8461   1.9088   2.0126
     2.0359   2.1224   2.1784   2.2549   2.4212   2.5441   2.5442   2.5588
     2.6580   2.8259

     occupation numbers 
     1.0000   1.0000   1.0000   1.0000   1.0000   1.0000   1.0000   1.0000
     1.0000   1.0000   1.0000   1.0000   1.0000   1.0000   1.0000   1.0000
     1.0000   1.0000   1.0000   1.0000   1.0000   1.0000   1.0000   1.0000
     1.0000   1.0000   1.0000   1.0000   1.0000   1.0000   1.0000   1.0000
     1.0000   1.0000   1.0000   1.0000   1.0000   1.0000   1.0000   1.0000
     1.0000   1.0000   1.0000   1.0000   1.0000   1.0000   1.0000   1.0000
     1.0000   1.0000   1.0000   1.0000   1.0000   1.0000   1.0000   1.0000
     1.0000   1.0000   1.0000   1.0000   1.0000   1.0000   1.0000   1.0000
     1.0000   1.0000   1.0000   1.0000   1.0000   1.0000   1.0000   1.0000
     1.0000   1.0000   1.0000   1.0000   1.0000   1.0000   1.0000   1.0000
     1.0000   1.0000   1.0000   1.0000   1.0000   1.0000   1.0000   1.0000
     1.0000   1.0000   1.0000   1.0000   1.0000   1.0000   1.0000   0.0007
     0.0000   0.0000   0.0000   0.0000   0.0000   0.0000   0.0000   0.0000
     0.0000   0.0000   0.0000   0.0000   0.0000   0.0000   0.0000   0.0000
     0.0000   0.0000

          k =-0.0000 0.3333 0.0000 (160321 PWs)   bands (ev):

   -55.3995 -55.3995 -55.3240 -55.3240 -55.3237 -55.3237 -31.7478 -31.7478
   -31.5866 -31.5866 -31.5846 -31.5846 -31.5811 -31.5811 -31.4943 -31.4943
   -31.4926 -31.4925 -31.2766 -31.2766 -31.1360 -31.1360 -31.1287 -31.1287
   -16.4954 -16.4871 -16.0734 -15.9088 -15.6487 -15.6199 -15.5456 -15.5254
   -15.4833 -15.4358 -15.1763 -15.1651 -14.9237 -14.9227 -14.8450 -14.8444
    -5.8792  -5.8518  -5.8499  -5.7939  -5.5204  -5.5128  -5.4437  -5.3529
    -5.2453  -5.1514  -5.1460  -4.9753  -4.9173  -4.8369  -4.7227  -4.6617
    -4.6103  -4.4596  -4.3706  -4.3670  -4.0238  -3.9769  -3.8401  -3.8277
    -3.7236  -3.7132  -3.6401  -3.5903  -3.5741  -3.5154  -3.3174  -3.1587
    -3.1543  -3.0758  -3.0362  -3.0223  -2.9533  -2.9339  -2.7502  -2.6572
    -2.5461  -2.4913  -2.3644  -2.2579  -2.0183  -2.0042  -1.7036  -1.6483
    -1.2938  -1.2600  -0.6214  -0.6152  -0.5256  -0.5169   0.3467   0.6660
     1.3326   1.3342   1.4679   1.4688   1.8791   1.9774   2.0203   2.0395
     2.0719   2.1638   2.2584   2.3416   2.4031   2.4375   2.5010   2.6122
     2.8394   2.8580

     occupation numbers 
     1.0000   1.0000   1.0000   1.0000   1.0000   1.0000   1.0000   1.0000
     1.0000   1.0000   1.0000   1.0000   1.0000   1.0000   1.0000   1.0000
     1.0000   1.0000   1.0000   1.0000   1.0000   1.0000   1.0000   1.0000
     1.0000   1.0000   1.0000   1.0000   1.0000   1.0000   1.0000   1.0000
     1.0000   1.0000   1.0000   1.0000   1.0000   1.0000   1.0000   1.0000
     1.0000   1.0000   1.0000   1.0000   1.0000   1.0000   1.0000   1.0000
     1.0000   1.0000   1.0000   1.0000   1.0000   1.0000   1.0000   1.0000
     1.0000   1.0000   1.0000   1.0000   1.0000   1.0000   1.0000   1.0000
     1.0000   1.0000   1.0000   1.0000   1.0000   1.0000   1.0000   1.0000
     1.0000   1.0000   1.0000   1.0000   1.0000   1.0000   1.0000   1.0000
     1.0000   1.0000   1.0000   1.0000   1.0000   1.0000   1.0000   1.0000
     1.0000   1.0000   1.0000   1.0000   1.0000   1.0000   1.0000   0.0000
     0.0000   0.0000   0.0000   0.0000   0.0000   0.0000   0.0000   0.0000
     0.0000   0.0000   0.0000   0.0000   0.0000   0.0000   0.0000   0.0000
     0.0000   0.0000

          k =-0.0962 0.5000 0.0000 (160239 PWs)   bands (ev):

   -55.3993 -55.3993 -55.3242 -55.3242 -55.3237 -55.3237 -31.7433 -31.7433
   -31.5852 -31.5851 -31.5830 -31.5830 -31.5784 -31.5784 -31.4954 -31.4954
   -31.4930 -31.4930 -31.2790 -31.2790 -31.1416 -31.1416 -31.1306 -31.1306
   -16.4669 -16.4638 -15.9565 -15.8225 -15.7755 -15.6718 -15.6384 -15.5527
   -15.4578 -15.4216 -15.1361 -15.1312 -14.9867 -14.9861 -14.8412 -14.8391
    -5.7054  -5.6992  -5.6226  -5.5686  -5.4869  -5.3494  -5.2935  -5.2364
    -5.1183  -5.0667  -4.9319  -4.8299  -4.7719  -4.6786  -4.6501  -4.6037
    -4.5650  -4.5109  -4.4925  -4.4208  -4.1947  -4.1674  -4.0650  -3.9805
    -3.9393  -3.8547  -3.7849  -3.7134  -3.6095  -3.5523  -3.4499  -3.3903
    -3.3117  -3.2392  -3.0412  -3.0331  -2.8964  -2.8617  -2.8255  -2.8106
    -2.5921  -2.5318  -2.4830  -2.3413  -2.3224  -2.2172  -1.8473  -1.7704
    -1.3145  -1.3065  -0.6485  -0.6414  -0.5254  -0.5053   0.3145   0.6726
     1.3072   1.3134   1.5497   1.5581   1.8517   1.8601   1.9469   2.0324
     2.0439   2.1122   2.1635   2.2265   2.3116   2.3789   2.5134   2.6219
     2.8359   2.8660

     occupation numbers 
     1.0000   1.0000   1.0000   1.0000   1.0000   1.0000   1.0000   1.0000
     1.0000   1.0000   1.0000   1.0000   1.0000   1.0000   1.0000   1.0000
     1.0000   1.0000   1.0000   1.0000   1.0000   1.0000   1.0000   1.0000
     1.0000   1.0000   1.0000   1.0000   1.0000   1.0000   1.0000   1.0000
     1.0000   1.0000   1.0000   1.0000   1.0000   1.0000   1.0000   1.0000
     1.0000   1.0000   1.0000   1.0000   1.0000   1.0000   1.0000   1.0000
     1.0000   1.0000   1.0000   1.0000   1.0000   1.0000   1.0000   1.0000
     1.0000   1.0000   1.0000   1.0000   1.0000   1.0000   1.0000   1.0000
     1.0000   1.0000   1.0000   1.0000   1.0000   1.0000   1.0000   1.0000
     1.0000   1.0000   1.0000   1.0000   1.0000   1.0000   1.0000   1.0000
     1.0000   1.0000   1.0000   1.0000   1.0000   1.0000   1.0000   1.0000
     1.0000   1.0000   1.0000   1.0000   1.0000   1.0000   1.0000   0.0000
     0.0000   0.0000   0.0000   0.0000   0.0000   0.0000   0.0000   0.0000
     0.0000   0.0000   0.0000   0.0000   0.0000   0.0000   0.0000   0.0000
     0.0000   0.0000

          k =-0.0000 0.6667 0.0000 (160113 PWs)   bands (ev):

   -55.3992 -55.3992 -55.3242 -55.3242 -55.3237 -55.3237 -31.7418 -31.7417
   -31.5846 -31.5845 -31.5808 -31.5808 -31.5793 -31.5793 -31.4948 -31.4948
   -31.4940 -31.4940 -31.2797 -31.2797 -31.1423 -31.1423 -31.1324 -31.1324
   -16.4583 -16.4563 -15.8342 -15.8187 -15.8187 -15.6780 -15.6780 -15.6494
   -15.4179 -15.4179 -15.1031 -15.1031 -15.0331 -15.0331 -14.8336 -14.8302
    -5.6787  -5.6692  -5.4287  -5.4287  -5.3728  -5.3439  -5.3439  -5.1296
    -5.1105  -5.1105  -4.9286  -4.7290  -4.7290  -4.7034  -4.6229  -4.6229
    -4.4859  -4.4210  -4.4210  -4.3369  -4.3369  -4.2615  -4.1116  -4.1116
    -3.9744  -3.8654  -3.8654  -3.8055  -3.8055  -3.6847  -3.3900  -3.3710
    -3.3710  -3.1873  -3.0560  -3.0560  -2.9435  -2.9435  -2.8539  -2.8306
    -2.5258  -2.5258  -2.4363  -2.4363  -2.2950  -2.2950  -2.0460  -1.9149
    -1.2885  -1.2746  -0.6436  -0.6436  -0.5461  -0.5461   0.3475   0.7242
     1.2529   1.2529   1.6132   1.6132   1.7859   2.0027   2.0027   2.0722
     2.0722   2.0986   2.0986   2.1350   2.1730   2.1730   2.5563   2.6595
     2.9845   2.9972

     occupation numbers 
     1.0000   1.0000   1.0000   1.0000   1.0000   1.0000   1.0000   1.0000
     1.0000   1.0000   1.0000   1.0000   1.0000   1.0000   1.0000   1.0000
     1.0000   1.0000   1.0000   1.0000   1.0000   1.0000   1.0000   1.0000
     1.0000   1.0000   1.0000   1.0000   1.0000   1.0000   1.0000   1.0000
     1.0000   1.0000   1.0000   1.0000   1.0000   1.0000   1.0000   1.0000
     1.0000   1.0000   1.0000   1.0000   1.0000   1.0000   1.0000   1.0000
     1.0000   1.0000   1.0000   1.0000   1.0000   1.0000   1.0000   1.0000
     1.0000   1.0000   1.0000   1.0000   1.0000   1.0000   1.0000   1.0000
     1.0000   1.0000   1.0000   1.0000   1.0000   1.0000   1.0000   1.0000
     1.0000   1.0000   1.0000   1.0000   1.0000   1.0000   1.0000   1.0000
     1.0000   1.0000   1.0000   1.0000   1.0000   1.0000   1.0000   1.0000
     1.0000   1.0000   1.0000   1.0000   1.0000   1.0000   1.0000   0.0000
     0.0000   0.0000   0.0000   0.0000   0.0000   0.0000   0.0000   0.0000
     0.0000   0.0000   0.0000   0.0000   0.0000   0.0000   0.0000   0.0000
     0.0000   0.0000

     the Fermi energy is     0.5024 ev

!    total energy              =   -1118.22809702 Ry
     estimated scf accuracy    <          3.8E-13 Ry
     smearing contrib. (-TS)   =      -0.00000311 Ry
     internal energy E=F+TS    =   -1118.22809391 Ry

     The total energy is F=E-TS. E is the sum of the following terms:
     one-electron contribution =  -11970.94035606 Ry
     hartree contribution      =    5994.93781411 Ry
     xc contribution           =    -165.89584665 Ry
     ewald contribution        =    5024.00462113 Ry
     DFT-D3 Dispersion         =      -0.33432644 Ry

     convergence has been achieved in  17 iterations

     Forces acting on atoms (cartesian axes, Ry/au):

     atom    1 type  1   force =     0.00002145   -0.00000000   -0.00000750
     atom    2 type  1   force =    -0.00001072    0.00001857   -0.00000750
     atom    3 type  1   force =    -0.00001072   -0.00001857   -0.00000750
     atom    4 type  1   force =    -0.00002145    0.00000000    0.00000750
     atom    5 type  1   force =     0.00001072   -0.00001857    0.00000750
     atom    6 type  1   force =     0.00001072    0.00001857    0.00000750
     atom    7 type  2   force =     0.00000000   -0.00000000    0.00000600
     atom    8 type  2   force =    -0.00000213    0.00000000    0.00000670
     atom    9 type  2   force =     0.00000107   -0.00000185    0.00000670
     atom   10 type  2   force =     0.00000107    0.00000185    0.00000670
     atom   11 type  2   force =     0.00000000   -0.00000000   -0.00000119
     atom   12 type  2   force =     0.00000208    0.00000000   -0.00000442
     atom   13 type  2   force =    -0.00000104    0.00000180   -0.00000442
     atom   14 type  2   force =    -0.00000104   -0.00000180   -0.00000442
     atom   15 type  2   force =    -0.00000208    0.00000000    0.00000442
     atom   16 type  2   force =     0.00000104   -0.00000180    0.00000442
     atom   17 type  2   force =     0.00000104    0.00000180    0.00000442
     atom   18 type  2   force =    -0.00000000   -0.00000000    0.00000119
     atom   19 type  2   force =     0.00000213    0.00000000   -0.00000670
     atom   20 type  2   force =    -0.00000107    0.00000185   -0.00000670
     atom   21 type  2   force =    -0.00000107   -0.00000185   -0.00000670
     atom   22 type  2   force =    -0.00000000    0.00000000   -0.00000600
     The non-local contrib.  to forces
     atom    1 type  1   force =    -0.20325732   -0.00000000   -0.03741649
     atom    2 type  1   force =     0.10162866   -0.17602601   -0.03741649
     atom    3 type  1   force =     0.10162866    0.17602601   -0.03741649
     atom    4 type  1   force =     0.20325732    0.00000000    0.03741649
     atom    5 type  1   force =    -0.10162866    0.17602601    0.03741649
     atom    6 type  1   force =    -0.10162866   -0.17602601    0.03741649
     atom    7 type  2   force =     0.00000000    0.00000000    0.23190503
     atom    8 type  2   force =    -0.08721578   -0.00000000    0.13877167
     atom    9 type  2   force =     0.04360789   -0.07553108    0.13877167
     atom   10 type  2   force =     0.04360789    0.07553108    0.13877167
     atom   11 type  2   force =     0.00000000    0.00000000   -0.15464515
     atom   12 type  2   force =     0.11251282    0.00000000   -0.15923234
     atom   13 type  2   force =    -0.05625641    0.09743896   -0.15923234
     atom   14 type  2   force =    -0.05625641   -0.09743896   -0.15923234
     atom   15 type  2   force =    -0.11251282   -0.00000000    0.15923234
     atom   16 type  2   force =     0.05625641   -0.09743896    0.15923234
     atom   17 type  2   force =     0.05625641    0.09743896    0.15923234
     atom   18 type  2   force =     0.00000000    0.00000000    0.15464515
     atom   19 type  2   force =     0.08721578    0.00000000   -0.13877167
     atom   20 type  2   force =    -0.04360789    0.07553108   -0.13877167
     atom   21 type  2   force =    -0.04360789   -0.07553108   -0.13877167
     atom   22 type  2   force =    -0.00000000   -0.00000000   -0.23190503
     The ionic contribution  to forces
     atom    1 type  1   force =     9.67123364   -0.00000000  -60.38664445
     atom    2 type  1   force =    -4.83561682    8.37553402  -60.38664444
     atom    3 type  1   force =    -4.83561682   -8.37553402  -60.38664444
     atom    4 type  1   force =    -9.67123364    0.00000000   60.38664445
     atom    5 type  1   force =     4.83561682   -8.37553402   60.38664444
     atom    6 type  1   force =     4.83561682    8.37553402   60.38664444
     atom    7 type  2   force =     0.00000000   -0.00000000  -64.40312467
     atom    8 type  2   force =     2.90585811    0.00000000  -53.83311452
     atom    9 type  2   force =    -1.45292905    2.51654694  -53.83311452
     atom   10 type  2   force =    -1.45292905   -2.51654694  -53.83311452
     atom   11 type  2   force =     0.00000000    0.00000000   -9.95113090
     atom   12 type  2   force =    -6.16454128    0.00000000   -5.98967290
     atom   13 type  2   force =     3.08227064   -5.33864935   -5.98967289
     atom   14 type  2   force =     3.08227064    5.33864935   -5.98967289
     atom   15 type  2   force =     6.16454128   -0.00000000    5.98967290
     atom   16 type  2   force =    -3.08227064    5.33864935    5.98967289
     atom   17 type  2   force =    -3.08227064   -5.33864935    5.98967289
     atom   18 type  2   force =    -0.00000000   -0.00000000    9.95113090
     atom   19 type  2   force =    -2.90585811   -0.00000000   53.83311452
     atom   20 type  2   force =     1.45292905   -2.51654694   53.83311452
     atom   21 type  2   force =     1.45292905    2.51654694   53.83311452
     atom   22 type  2   force =    -0.00000000    0.00000000   64.40312467
     The local contribution  to forces
     atom    1 type  1   force =    -9.46630130   -0.00000000   60.42164787
     atom    2 type  1   force =     4.73315059   -8.19805738   60.42164787
     atom    3 type  1   force =     4.73315059    8.19805738   60.42164787
     atom    4 type  1   force =     9.46630130    0.00000000  -60.42164787
     atom    5 type  1   force =    -4.73315059    8.19805738  -60.42164787
     atom    6 type  1   force =    -4.73315059   -8.19805738  -60.42164787
     atom    7 type  2   force =    -0.00000000    0.00000000   64.16986799
     atom    8 type  2   force =    -2.81942056    0.00000000   53.69287392
     atom    9 type  2   force =     1.40971027   -2.44168982   53.69287392
     atom   10 type  2   force =     1.40971027    2.44168982   53.69287392
     atom   11 type  2   force =     0.00000000   -0.00000000   10.10262775
     atom   12 type  2   force =     6.05284378    0.00000000    6.14841202
     atom   13 type  2   force =    -3.02642188    5.24191647    6.14841202
     atom   14 type  2   force =    -3.02642188   -5.24191647    6.14841202
     atom   15 type  2   force =    -6.05284378   -0.00000000   -6.14841202
     atom   16 type  2   force =     3.02642188   -5.24191647   -6.14841202
     atom   17 type  2   force =     3.02642188    5.24191647   -6.14841202
     atom   18 type  2   force =    -0.00000000    0.00000000  -10.10262775
     atom   19 type  2   force =     2.81942056   -0.00000000  -53.69287392
     atom   20 type  2   force =    -1.40971027    2.44168982  -53.69287392
     atom   21 type  2   force =    -1.40971027   -2.44168982  -53.69287392
     atom   22 type  2   force =     0.00000000   -0.00000000  -64.16986799
     The core correction contribution to forces
     atom    1 type  1   force =     0.00000000    0.00000000    0.00000000
     atom    2 type  1   force =     0.00000000    0.00000000    0.00000000
     atom    3 type  1   force =     0.00000000    0.00000000    0.00000000
     atom    4 type  1   force =     0.00000000    0.00000000    0.00000000
     atom    5 type  1   force =     0.00000000    0.00000000    0.00000000
     atom    6 type  1   force =     0.00000000    0.00000000    0.00000000
     atom    7 type  2   force =     0.00000000    0.00000000    0.00000000
     atom    8 type  2   force =     0.00000000    0.00000000    0.00000000
     atom    9 type  2   force =     0.00000000    0.00000000    0.00000000
     atom   10 type  2   force =     0.00000000    0.00000000    0.00000000
     atom   11 type  2   force =     0.00000000    0.00000000    0.00000000
     atom   12 type  2   force =     0.00000000    0.00000000    0.00000000
     atom   13 type  2   force =     0.00000000    0.00000000    0.00000000
     atom   14 type  2   force =     0.00000000    0.00000000    0.00000000
     atom   15 type  2   force =     0.00000000    0.00000000    0.00000000
     atom   16 type  2   force =     0.00000000    0.00000000    0.00000000
     atom   17 type  2   force =     0.00000000    0.00000000    0.00000000
     atom   18 type  2   force =     0.00000000    0.00000000    0.00000000
     atom   19 type  2   force =     0.00000000    0.00000000    0.00000000
     atom   20 type  2   force =     0.00000000    0.00000000    0.00000000
     atom   21 type  2   force =     0.00000000    0.00000000    0.00000000
     atom   22 type  2   force =     0.00000000    0.00000000    0.00000000
     The Hubbard contrib.    to forces
     atom    1 type  1   force =     0.00000000    0.00000000    0.00000000
     atom    2 type  1   force =     0.00000000    0.00000000    0.00000000
     atom    3 type  1   force =     0.00000000    0.00000000    0.00000000
     atom    4 type  1   force =     0.00000000    0.00000000    0.00000000
     atom    5 type  1   force =     0.00000000    0.00000000    0.00000000
     atom    6 type  1   force =     0.00000000    0.00000000    0.00000000
     atom    7 type  2   force =     0.00000000    0.00000000    0.00000000
     atom    8 type  2   force =     0.00000000    0.00000000    0.00000000
     atom    9 type  2   force =     0.00000000    0.00000000    0.00000000
     atom   10 type  2   force =     0.00000000    0.00000000    0.00000000
     atom   11 type  2   force =     0.00000000    0.00000000    0.00000000
     atom   12 type  2   force =     0.00000000    0.00000000    0.00000000
     atom   13 type  2   force =     0.00000000    0.00000000    0.00000000
     atom   14 type  2   force =     0.00000000    0.00000000    0.00000000
     atom   15 type  2   force =     0.00000000    0.00000000    0.00000000
     atom   16 type  2   force =     0.00000000    0.00000000    0.00000000
     atom   17 type  2   force =     0.00000000    0.00000000    0.00000000
     atom   18 type  2   force =     0.00000000    0.00000000    0.00000000
     atom   19 type  2   force =     0.00000000    0.00000000    0.00000000
     atom   20 type  2   force =     0.00000000    0.00000000    0.00000000
     atom   21 type  2   force =     0.00000000    0.00000000    0.00000000
     atom   22 type  2   force =     0.00000000    0.00000000    0.00000000
     The SCF correction term to forces
     atom    1 type  1   force =    -0.00000096    0.00000000    0.00000025
     atom    2 type  1   force =     0.00000048   -0.00000083    0.00000025
     atom    3 type  1   force =     0.00000048    0.00000083    0.00000025
     atom    4 type  1   force =     0.00000096   -0.00000000   -0.00000025
     atom    5 type  1   force =    -0.00000048    0.00000083   -0.00000025
     atom    6 type  1   force =    -0.00000048   -0.00000083   -0.00000025
     atom    7 type  2   force =    -0.00000000   -0.00000000    0.00000006
     atom    8 type  2   force =     0.00000007   -0.00000000   -0.00000034
     atom    9 type  2   force =    -0.00000004    0.00000006   -0.00000034
     atom   10 type  2   force =    -0.00000004   -0.00000006   -0.00000034
     atom   11 type  2   force =     0.00000000    0.00000000    0.00000043
     atom   12 type  2   force =     0.00000029    0.00000000    0.00000033
     atom   13 type  2   force =    -0.00000014    0.00000025    0.00000033
     atom   14 type  2   force =    -0.00000014   -0.00000025    0.00000033
     atom   15 type  2   force =    -0.00000029   -0.00000000   -0.00000033
     atom   16 type  2   force =     0.00000014   -0.00000025   -0.00000033
     atom   17 type  2   force =     0.00000014    0.00000025   -0.00000033
     atom   18 type  2   force =    -0.00000000   -0.00000000   -0.00000043
     atom   19 type  2   force =    -0.00000007   -0.00000000    0.00000034
     atom   20 type  2   force =     0.00000004   -0.00000006    0.00000034
     atom   21 type  2   force =     0.00000004    0.00000006    0.00000034
     atom   22 type  2   force =     0.00000000    0.00000000   -0.00000006

     DFT-D3 dispersion contribution to forces:
     atom    1 type  1   force =    -0.00165265   -0.00000000    0.00240531
     atom    2 type  1   force =     0.00082632   -0.00143123    0.00240531
     atom    3 type  1   force =     0.00082632    0.00143123    0.00240531
     atom    4 type  1   force =     0.00165265   -0.00000000   -0.00240531
     atom    5 type  1   force =    -0.00082632    0.00143123   -0.00240531
     atom    6 type  1   force =    -0.00082632   -0.00143123   -0.00240531
     atom    7 type  2   force =     0.00000000   -0.00000000    0.00135759
     atom    8 type  2   force =     0.00077602    0.00000000    0.00147596
     atom    9 type  2   force =    -0.00038801    0.00067206    0.00147596
     atom   10 type  2   force =    -0.00038801   -0.00067206    0.00147596
     atom   11 type  2   force =    -0.00000000   -0.00000000    0.00314667
     atom   12 type  2   force =    -0.00081352    0.00000000    0.00048847
     atom   13 type  2   force =     0.00040676   -0.00070453    0.00048847
     atom   14 type  2   force =     0.00040676    0.00070453    0.00048847
     atom   15 type  2   force =     0.00081352    0.00000000   -0.00048847
     atom   16 type  2   force =    -0.00040676    0.00070453   -0.00048847
     atom   17 type  2   force =    -0.00040676   -0.00070453   -0.00048847
     atom   18 type  2   force =     0.00000000   -0.00000000   -0.00314667
     atom   19 type  2   force =    -0.00077602   -0.00000000   -0.00147596
     atom   20 type  2   force =     0.00038801   -0.00067206   -0.00147596
     atom   21 type  2   force =     0.00038801    0.00067206   -0.00147596
     atom   22 type  2   force =    -0.00000000    0.00000000   -0.00135759

     Total force =     0.000060     Total SCF correction =     0.000003

     DFT-D3 dispersion Force =     0.009832


     Computing stress (Cartesian axis) and pressure

          total   stress  (Ry/bohr**3)                   (kbar)     P=        0.66
   0.00000705   0.00000000   0.00000000            1.04        0.00        0.00
   0.00000000   0.00000705   0.00000000            0.00        1.04        0.00
  -0.00000000   0.00000000  -0.00000057           -0.00        0.00       -0.08

     kinetic stress (kbar)   3635.75      0.00     -0.00
                                0.00   3635.75      0.00
                               -0.00      0.00   3593.20

     local   stress (kbar)-181952.54      0.00     -0.00
                                0.00-181952.54     -0.00
                               -0.00     -0.00 178869.40

     nonloc. stress (kbar)   1930.85      0.00      0.00
                                0.00   1930.85      0.00
                               -0.00     -0.00   1939.75

     hartree stress (kbar)  90485.62     -0.00     -0.00
                               -0.00  90485.62     -0.00
                               -0.00     -0.00 -88051.56

     exc-cor stress (kbar)   -801.65     -0.00     -0.00
                               -0.00   -801.65      0.00
                               -0.00      0.00   -803.27

     corecor stress (kbar)      0.00      0.00      0.00
                                0.00      0.00      0.00
                                0.00      0.00      0.00

     ewald   stress (kbar)  86707.30      0.00      0.00
                                0.00  86707.30      0.00
                                0.00      0.00 -95544.08

     hubbard stress (kbar)      0.00      0.00      0.00
                                0.00      0.00      0.00
                                0.00      0.00      0.00

     DFT-D   stress (kbar)     -4.29     -0.00      0.00
                               -0.00     -4.29     -0.00
                                0.00     -0.00     -3.53

     XDM     stress (kbar)      0.00      0.00      0.00
                                0.00      0.00      0.00
                                0.00      0.00      0.00

     dft-nl  stress (kbar)      0.00      0.00      0.00
                                0.00      0.00      0.00
                                0.00      0.00      0.00

     TS-vdW  stress (kbar)      0.00      0.00      0.00
                                0.00      0.00      0.00
                                0.00      0.00      0.00

     MDB     stress (kbar)      0.00      0.00      0.00
                                0.00      0.00      0.00
                                0.00      0.00      0.00

     3D-RISM stress (kbar)      0.00      0.00      0.00
                                0.00      0.00      0.00
                                0.00      0.00      0.00


     Writing all to output data dir ./out/Nb3Br8.save/ :
     XML data file, charge density, pseudopotentials, collected wavefunctions

     init_run     :      1.58s CPU      1.76s WALL (       1 calls)
     electrons    :     61.24s CPU     65.42s WALL (       1 calls)
     forces       :      0.46s CPU      0.50s WALL (       1 calls)
     force_dftd3  :      0.02s CPU      0.02s WALL (       1 calls)
     stress       :      4.78s CPU      4.90s WALL (       1 calls)
     stres_dftd3  :      0.01s CPU      0.01s WALL (       1 calls)

     Called by init_run:
     wfcinit      :      0.43s CPU      0.49s WALL (       1 calls)
     wfcinit:wfcr :      0.37s CPU      0.42s WALL (       1 calls)
     potinit      :      0.08s CPU      0.10s WALL (       1 calls)
     hinit0       :      0.56s CPU      0.59s WALL (       1 calls)

     Called by electrons:
     c_bands      :     54.46s CPU     57.56s WALL (      18 calls)
     sum_band     :      4.09s CPU      4.45s WALL (      18 calls)
     v_of_rho     :      1.11s CPU      1.28s WALL (      18 calls)
     v_h          :      0.08s CPU      0.10s WALL (      18 calls)
     v_xc         :      1.03s CPU      1.18s WALL (      18 calls)
     mix_rho      :      0.40s CPU      0.43s WALL (      18 calls)
     energy_dftd3 :      0.00s CPU      0.00s WALL (       1 calls)

     Called by c_bands:
     init_us_2    :      1.35s CPU      1.40s WALL (      37 calls)
     cegterg      :     40.98s CPU     43.93s WALL (      18 calls)

     Called by sum_band:
     sum_band:wei :      0.08s CPU      0.09s WALL (      18 calls)
     sum_band:loo :      2.45s CPU      2.72s WALL (      18 calls)
     sum_band:buf :      0.00s CPU      0.00s WALL (      18 calls)
     sum_band:ini :      0.68s CPU      0.70s WALL (      18 calls)

     Called by *egterg:
     cdiaghg      :      4.15s CPU      4.20s WALL (     224 calls)
     cegterg:over :      4.12s CPU      4.18s WALL (     207 calls)
     cegterg:upda :      3.06s CPU      3.20s WALL (     207 calls)
     cegterg:last :      4.31s CPU      4.36s WALL (      64 calls)
     h_psi        :     24.31s CPU     26.94s WALL (     226 calls)
     g_psi        :      0.11s CPU      0.12s WALL (     207 calls)

     Called by h_psi:
     h_psi:calbec :      5.31s CPU      5.43s WALL (     226 calls)
     vloc_psi     :     13.53s CPU     15.81s WALL (     226 calls)
     add_vuspsi   :      5.12s CPU      5.20s WALL (     226 calls)

     General routines
     calbec       :      5.59s CPU      5.71s WALL (     231 calls)
     fft          :      0.89s CPU      1.06s WALL (     188 calls)
     ffts         :      0.06s CPU      0.08s WALL (      18 calls)
     fftw         :     13.73s CPU     16.04s WALL (   18280 calls)

     Parallel routines

     PWSCF        :     70.78s CPU    180.17s WALL


   This run was terminated on:  21:23:18   7May2025            

=------------------------------------------------------------------------------=
   JOB DONE.
=------------------------------------------------------------------------------=
