
     Program PHONON v.7.4.1 starts on 30May2025 at 12: 8:57 

     This program is part of the open-source Quantum ESPRESSO suite
     for quantum simulation of materials; please cite
         "P. Giannozzi et al., J. Phys.:Condens. Matter 21 395502 (2009);
         "P. Giannozzi et al., J. Phys.:Condens. Matter 29 465901 (2017);
         "P. Giannozzi et al., J. Chem. Phys. 152 154105 (2020);
          URL http://www.quantum-espresso.org", 
     in publications or presentations arising from this work. More details at
     http://www.quantum-espresso.org/quote

     Parallel version (MPI), running on   384 processors

     MPI processes distributed on     2 nodes
     344886 MiB available memory on the printing compute node when the environment starts

     Waiting for input...
     Reading input from standard input
     Run is not recoverable starting from scratch

     Reading xml data from directory:

     ./out/Nb3F8.save/

     K-points division:     npool     =      12
     R & G space division:  proc/nbgrp/npool/nimage =      32
     Subspace diagonalization in iterative solution of the eigenvalue problem:
     a serial algorithm will be used


     IMPORTANT: XC functional enforced from input :
     Exchange-correlation= PBE
                           (   1   4   3   4   0   0   0)
     Any further DFT definition will be discarded
     Please, verify this is what you really want


     Parallelization info
     --------------------
     sticks:   dense  smooth     PW     G-vecs:    dense   smooth      PW
     Min         107     107     28                 8355     8355    1162
     Max         108     108     29                 8364     8364    1171
     Sum        3427    3427    925               267435   267435   37405

     Using Slab Decomposition

     Reading collected, re-writing distributed wavefunctions in ./out/

     cDFPT active subspace:
     Complete band 95
     Complete band 96


     Dynamical matrices for ( 2, 2, 2)  uniform grid of q-points
     (   4 q-points):
       N         xq(1)         xq(2)         xq(3) 
       1   0.000000000   0.000000000   0.000000000
       2   0.000000000   0.000000000  -0.303645024
       3   0.288675135  -0.500000000   0.101215008
       4   0.288675135  -0.500000000  -0.202430016

     Number and degeneracy of irreps per q-point
       N         xq(1)         xq(2)         xq(3)   N irreps
       1   0.000000000   0.000000000   0.000000000      44
        1   1   1   1   1   1   1   1   1   1   1   2   2   2   2   2   2   2
   2   2   2   2   1   1   1   1   1   1   1   1   1   1   1   2   2   2
   2   2   2   2   2   2   2   2
       2   0.000000000   0.000000000  -0.303645024      44
        1   1   1   1   1   1   1   1   1   1   1   2   2   2   2   2   2   2
   2   2   2   2   1   1   1   1   1   1   1   1   1   1   1   2   2   2
   2   2   2   2   2   2   2   2
       3   0.288675135  -0.500000000   0.101215008      66
     No degeneracy
       4   0.288675135  -0.500000000  -0.202430016      66
     No degeneracy

     Saving dvscf to file. Distribute only q points, not irreducible representations.

     Calculation of q =    0.0000000   0.0000000   0.0000000

     Nb3F8                                                                      

     bravais-lattice index     =            0
     lattice parameter (alat)  =      11.1557  a.u.
     unit-cell volume          =    1979.8333 (a.u.)^3
     number of atoms/cell      =           22
     number of atomic types    =            2
     kinetic-energy cut-off    =     100.0000  Ry
     charge density cut-off    =     400.0000  Ry
     convergence threshold     =      1.0E-16
     beta                      =       0.7000
     number of iterations used =            4
     Exchange-correlation= PBE
                           (   1   4   3   4   0   0   0)


     celldm(1)=   11.15573  celldm(2)=    0.00000  celldm(3)=    0.00000
     celldm(4)=    0.00000  celldm(5)=    0.00000  celldm(6)=    0.00000

     crystal axes: (cart. coord. in units of alat)
               a(1) = (  0.8660  0.5000  0.0000 )  
               a(2) = ( -0.8660  0.5000  0.0000 )  
               a(3) = ( -0.5774  0.0000  1.6467 )  

     reciprocal axes: (cart. coord. in units 2 pi/alat)
               b(1) = (  0.5774  1.0000  0.2024 )  
               b(2) = ( -0.5774  1.0000 -0.2024 )  
               b(3) = (  0.0000 -0.0000  0.6073 )  


     Atoms inside the unit cell: 

     Cartesian axes

     site n.  atom      mass           positions (alat units)
        1  Nb     92.9064   tau(    1) = (    0.25220    0.00000   -0.41166  )
        2  Nb     92.9064   tau(    2) = (   -0.12610    0.21841   -0.41166  )
        3  Nb     92.9064   tau(    3) = (   -0.12610   -0.21841   -0.41166  )
        4  Nb     92.9064   tau(    4) = (   -0.25220   -0.00000    0.41166  )
        5  Nb     92.9064   tau(    5) = (    0.12610   -0.21841    0.41166  )
        6  Nb     92.9064   tau(    6) = (    0.12610    0.21841    0.41166  )
        7  F      18.9984   tau(    7) = (    0.00000    0.00000   -0.67560  )
        8  F      18.9984   tau(    8) = (    0.85697    0.00000   -0.59581  )
        9  F      18.9984   tau(    9) = (    0.43754    0.24216   -0.59581  )
       10  F      18.9984   tau(   10) = (    0.43754   -0.24216   -0.59581  )
       11  F      18.9984   tau(   11) = (    0.57735    0.00000   -0.22131  )
       12  F      18.9984   tau(   12) = (   -0.28359    0.00000   -0.18697  )
       13  F      18.9984   tau(   13) = (    0.14179   -0.24560   -0.18697  )
       14  F      18.9984   tau(   14) = (    0.14179    0.24560   -0.18697  )
       15  F      18.9984   tau(   15) = (    0.28359   -0.00000    0.18697  )
       16  F      18.9984   tau(   16) = (   -0.14179    0.24560    0.18697  )
       17  F      18.9984   tau(   17) = (   -0.14179   -0.24560    0.18697  )
       18  F      18.9984   tau(   18) = (   -0.57735    0.00000    0.22131  )
       19  F      18.9984   tau(   19) = (   -0.85697   -0.00000    0.59581  )
       20  F      18.9984   tau(   20) = (   -0.43754   -0.24216    0.59581  )
       21  F      18.9984   tau(   21) = (   -0.43754    0.24216    0.59581  )
       22  F      18.9984   tau(   22) = (   -0.00000    0.00000    0.67560  )

     Computing dynamical matrix for 
                    q = (   0.0000000   0.0000000   0.0000000 )

     13 Sym.Ops. (with q -> -q+G )


     G cutoff = 1260.9456  (   8359 G-vectors)     FFT grid: (180,180,180)

     number of k points=    32  Gaussian smearing, width (Ry)=  0.0037

     PseudoPot. # 1 for Nb read from file:
     /scratch-shared/mroesner/Nb3X8_cDFPT/pp/Nb_ONCV_PBE-1.2.upf
     MD5 check sum: 2c750ac0b6910ff4cf0ab5f6c4124a64
     Pseudo is Norm-conserving, Zval = 13.0
     Generated using ONCVPSP code by D. R. Hamann
     Using radial grid of  602 points,  6 beta functions with: 
                l(1) =   0
                l(2) =   0
                l(3) =   1
                l(4) =   1
                l(5) =   2
                l(6) =   2

     PseudoPot. # 2 for F  read from file:
     /scratch-shared/mroesner/Nb3X8_cDFPT/pp/F_ONCV_PBE-1.2.upf
     MD5 check sum: 1d8275f47d602dd53cad6bcdc0eda7dc
     Pseudo is Norm-conserving, Zval =  7.0
     Generated using ONCVPSP code by D. R. Hamann
     Using radial grid of  602 points,  4 beta functions with: 
                l(1) =   0
                l(2) =   0
                l(3) =   1
                l(4) =   1

     Mode symmetry, D_3d (-3m)  point group:


     Electric field:
     Dielectric constant
     Born effective charges in two ways 


     Atomic displacements:
     There are   44 irreducible representations

     Representation     1      1 modes -  To be done

     Representation     2      1 modes -  To be done

     Representation     3      1 modes -  To be done

     Representation     4      1 modes -  To be done

     Representation     5      1 modes -  To be done

     Representation     6      1 modes -  To be done

     Representation     7      1 modes -  To be done

     Representation     8      1 modes -  To be done

     Representation     9      1 modes -  To be done

     Representation    10      1 modes -  To be done

     Representation    11      1 modes -  To be done

     Representation    12      2 modes -  To be done

     Representation    13      2 modes -  To be done

     Representation    14      2 modes -  To be done

     Representation    15      2 modes -  To be done

     Representation    16      2 modes -  To be done

     Representation    17      2 modes -  To be done

     Representation    18      2 modes -  To be done

     Representation    19      2 modes -  To be done

     Representation    20      2 modes -  To be done

     Representation    21      2 modes -  To be done

     Representation    22      2 modes -  To be done

     Representation    23      1 modes -  To be done

     Representation    24      1 modes -  To be done

     Representation    25      1 modes -  To be done

     Representation    26      1 modes -  To be done

     Representation    27      1 modes -  To be done

     Representation    28      1 modes -  To be done

     Representation    29      1 modes -  To be done

     Representation    30      1 modes -  To be done

     Representation    31      1 modes -  To be done

     Representation    32      1 modes -  To be done

     Representation    33      1 modes -  To be done

     Representation    34      2 modes -  To be done

     Representation    35      2 modes -  To be done

     Representation    36      2 modes -  To be done

     Representation    37      2 modes -  To be done

     Representation    38      2 modes -  To be done

     Representation    39      2 modes -  To be done

     Representation    40      2 modes -  To be done

     Representation    41      2 modes -  To be done

     Representation    42      2 modes -  To be done

     Representation    43      2 modes -  To be done

     Representation    44      2 modes -  To be done



     Alpha used in Ewald sum =   2.8000

     Reading Grimme-D3 Hessian from file: ./out/Nb3F8.hess

     Number of cells replicated along each semiaxis:   10  10   6
     Number of cells in the supercell:      5733
     Number of atoms in the supercell:    126126
     Hessian allocation dimension:  24972948

     Grimme-D3 Hessian read 

     Computing dynamical matrix for q:     0.000000    0.000000    0.000000

     Writing Hessian on file dynamical.false.dat

     Dynamical matrix computed
     PHONON       :     15.42s CPU     17.66s WALL


     Electric Fields Calculation

      iter #   1 total cpu time :   219.7 secs   av.it.:   8.6
      thresh= 1.000E-02 alpha_mix =  0.700 |ddv_scf|^2 =  1.326E-07

      iter #   2 total cpu time :   446.6 secs   av.it.:  20.3
      thresh= 3.641E-05 alpha_mix =  0.700 |ddv_scf|^2 =  2.835E-06

      iter #   3 total cpu time :  1105.4 secs   av.it.:  17.0
      thresh= 1.684E-04 alpha_mix =  0.700 |ddv_scf|^2 =  6.819E-09

      iter #   4 total cpu time :  1273.3 secs   av.it.:  18.4
      thresh= 8.258E-06 alpha_mix =  0.700 |ddv_scf|^2 =  2.427E-10

      iter #   5 total cpu time :  1401.5 secs   av.it.:  18.4
      thresh= 1.558E-06 alpha_mix =  0.700 |ddv_scf|^2 =  1.275E-11

      iter #   6 total cpu time :  1532.1 secs   av.it.:  18.1
      thresh= 3.570E-07 alpha_mix =  0.700 |ddv_scf|^2 =  2.478E-12

      iter #   7 total cpu time :  1637.3 secs   av.it.:  18.5
      thresh= 1.574E-07 alpha_mix =  0.700 |ddv_scf|^2 =  5.564E-13

      iter #   8 total cpu time :  1755.5 secs   av.it.:  19.2
      thresh= 7.460E-08 alpha_mix =  0.700 |ddv_scf|^2 =  3.973E-13

      iter #   9 total cpu time :  1872.5 secs   av.it.:  18.4
      thresh= 6.303E-08 alpha_mix =  0.700 |ddv_scf|^2 =  4.743E-13

      iter #  10 total cpu time :  1989.8 secs   av.it.:  17.9
      thresh= 6.887E-08 alpha_mix =  0.700 |ddv_scf|^2 =  9.664E-15

      iter #  11 total cpu time :  2095.8 secs   av.it.:  17.9
      thresh= 9.830E-09 alpha_mix =  0.700 |ddv_scf|^2 =  4.721E-15

      iter #  12 total cpu time :  2201.1 secs   av.it.:  17.8
      thresh= 6.871E-09 alpha_mix =  0.700 |ddv_scf|^2 =  3.304E-16

      iter #  13 total cpu time :  2322.2 secs   av.it.:  17.7
      thresh= 1.818E-09 alpha_mix =  0.700 |ddv_scf|^2 =  3.935E-17

     End of electric fields calculation

          Dielectric constant in cartesian axis 

          (       4.499618917       0.000000000       0.000000000 )
          (       0.000000000       4.499618917       0.000000000 )
          (       0.000000000       0.000000000       2.389243615 )

          Effective charges (d Force / dE) in cartesian axis without acoustic sum rule applied (asr)

           atom    1  Nb    Mean Z*:        2.91673
      Ex  (        3.84229       -0.00000       -0.85053 )
      Ey  (       -0.00000        2.71050        0.00000 )
      Ez  (       -0.34523       -0.00000        2.19741 )
           atom    2  Nb    Mean Z*:        2.91673
      Ex  (        2.99345       -0.49008        0.42527 )
      Ey  (       -0.49008        3.55934       -0.73658 )
      Ez  (        0.17262       -0.29898        2.19741 )
           atom    3  Nb    Mean Z*:        2.91673
      Ex  (        2.99345        0.49008        0.42527 )
      Ey  (        0.49008        3.55934        0.73658 )
      Ez  (        0.17262        0.29898        2.19741 )
           atom    4  Nb    Mean Z*:        2.91673
      Ex  (        3.84229        0.00000       -0.85053 )
      Ey  (        0.00000        2.71050        0.00000 )
      Ez  (       -0.34523        0.00000        2.19741 )
           atom    5  Nb    Mean Z*:        2.91673
      Ex  (        2.99345       -0.49008        0.42527 )
      Ey  (       -0.49008        3.55934       -0.73658 )
      Ez  (        0.17262       -0.29898        2.19741 )
           atom    6  Nb    Mean Z*:        2.91673
      Ex  (        2.99345        0.49008        0.42527 )
      Ey  (        0.49008        3.55934        0.73658 )
      Ez  (        0.17262        0.29898        2.19741 )
           atom    7  F     Mean Z*:       -0.47508
      Ex  (       -0.23320        0.00000       -0.00000 )
      Ey  (        0.00000       -0.23320        0.00000 )
      Ez  (       -0.00000        0.00000       -0.95883 )
           atom    8  F     Mean Z*:       -1.38006
      Ex  (       -0.49131        0.00000        0.05784 )
      Ey  (        0.00000       -2.96474       -0.00000 )
      Ez  (        0.09163       -0.00000       -0.68413 )
           atom    9  F     Mean Z*:       -1.38006
      Ex  (       -2.34638       -1.07103       -0.02892 )
      Ey  (       -1.07103       -1.10967        0.05009 )
      Ez  (       -0.04581        0.07935       -0.68413 )
           atom   10  F     Mean Z*:       -1.38006
      Ex  (       -2.34638        1.07103       -0.02892 )
      Ey  (        1.07103       -1.10967       -0.05009 )
      Ez  (       -0.04581       -0.07935       -0.68413 )
           atom   11  F     Mean Z*:       -1.51913
      Ex  (       -1.98794        0.00000        0.00000 )
      Ey  (        0.00000       -1.98794        0.00000 )
      Ez  (        0.00000        0.00000       -0.58152 )
           atom   12  F     Mean Z*:       -0.69931
      Ex  (       -0.83158        0.00000        0.41065 )
      Ey  (       -0.00000       -0.43384       -0.00000 )
      Ez  (        0.29659       -0.00000       -0.83252 )
           atom   13  F     Mean Z*:       -0.69931
      Ex  (       -0.53328        0.17223       -0.20532 )
      Ey  (        0.17223       -0.73215        0.35563 )
      Ez  (       -0.14829        0.25685       -0.83252 )
           atom   14  F     Mean Z*:       -0.69931
      Ex  (       -0.53328       -0.17223       -0.20532 )
      Ey  (       -0.17223       -0.73215       -0.35563 )
      Ez  (       -0.14829       -0.25685       -0.83252 )
           atom   15  F     Mean Z*:       -0.69931
      Ex  (       -0.83158        0.00000        0.41065 )
      Ey  (       -0.00000       -0.43384       -0.00000 )
      Ez  (        0.29659        0.00000       -0.83252 )
           atom   16  F     Mean Z*:       -0.69931
      Ex  (       -0.53328        0.17223       -0.20532 )
      Ey  (        0.17223       -0.73215        0.35563 )
      Ez  (       -0.14829        0.25685       -0.83252 )
           atom   17  F     Mean Z*:       -0.69931
      Ex  (       -0.53328       -0.17223       -0.20532 )
      Ey  (       -0.17223       -0.73215       -0.35563 )
      Ez  (       -0.14829       -0.25685       -0.83252 )
           atom   18  F     Mean Z*:       -1.51913
      Ex  (       -1.98794        0.00000        0.00000 )
      Ey  (        0.00000       -1.98794        0.00000 )
      Ez  (        0.00000        0.00000       -0.58152 )
           atom   19  F     Mean Z*:       -1.38006
      Ex  (       -0.49131        0.00000        0.05784 )
      Ey  (        0.00000       -2.96474        0.00000 )
      Ez  (        0.09163       -0.00000       -0.68413 )
           atom   20  F     Mean Z*:       -1.38006
      Ex  (       -2.34638       -1.07103       -0.02892 )
      Ey  (       -1.07103       -1.10967        0.05009 )
      Ez  (       -0.04581        0.07935       -0.68413 )
           atom   21  F     Mean Z*:       -1.38006
      Ex  (       -2.34638        1.07103       -0.02892 )
      Ey  (        1.07103       -1.10967       -0.05009 )
      Ez  (       -0.04581       -0.07935       -0.68413 )
           atom   22  F     Mean Z*:       -0.47508
      Ex  (       -0.23320        0.00000       -0.00000 )
      Ey  (        0.00000       -0.23320       -0.00000 )
      Ez  (       -0.00000       -0.00000       -0.95883 )

          Effective charges Sum: Mean:        1.03574
              1.05167       -0.00000        0.00000
             -0.00000        1.05167       -0.00000
              0.00000       -0.00000        1.00390

          Effective charges (d Force / dE) in cartesian axis with asr applied: 
           atom    1  Nb    Mean Z*:        2.86965
      E*x (        3.79448       -0.00000       -0.85053 )
      E*y (       -0.00000        2.66270        0.00000 )
      E*z (       -0.34523       -0.00000        2.15177 )
           atom    2  Nb    Mean Z*:        2.86965
      E*x (        2.94565       -0.49008        0.42527 )
      E*y (       -0.49008        3.51154       -0.73658 )
      E*z (        0.17262       -0.29898        2.15177 )
           atom    3  Nb    Mean Z*:        2.86965
      E*x (        2.94565        0.49008        0.42527 )
      E*y (        0.49008        3.51154        0.73658 )
      E*z (        0.17262        0.29898        2.15177 )
           atom    4  Nb    Mean Z*:        2.86965
      E*x (        3.79448        0.00000       -0.85053 )
      E*y (        0.00000        2.66270        0.00000 )
      E*z (       -0.34523        0.00000        2.15177 )
           atom    5  Nb    Mean Z*:        2.86965
      E*x (        2.94565       -0.49008        0.42527 )
      E*y (       -0.49008        3.51154       -0.73658 )
      E*z (        0.17262       -0.29898        2.15177 )
           atom    6  Nb    Mean Z*:        2.86965
      E*x (        2.94565        0.49008        0.42527 )
      E*y (        0.49008        3.51154        0.73658 )
      E*z (        0.17262        0.29898        2.15177 )
           atom    7  F     Mean Z*:       -0.52216
      E*x (       -0.28100        0.00000       -0.00000 )
      E*y (        0.00000       -0.28100        0.00000 )
      E*z (       -0.00000        0.00000       -1.00446 )
           atom    8  F     Mean Z*:       -1.42714
      E*x (       -0.53911        0.00000        0.05784 )
      E*y (        0.00000       -3.01255       -0.00000 )
      E*z (        0.09163       -0.00000       -0.72976 )
           atom    9  F     Mean Z*:       -1.42714
      E*x (       -2.39419       -1.07103       -0.02892 )
      E*y (       -1.07103       -1.15747        0.05009 )
      E*z (       -0.04581        0.07935       -0.72976 )
           atom   10  F     Mean Z*:       -1.42714
      E*x (       -2.39419        1.07103       -0.02892 )
      E*y (        1.07103       -1.15747       -0.05009 )
      E*z (       -0.04581       -0.07935       -0.72976 )
           atom   11  F     Mean Z*:       -1.56621
      E*x (       -2.03574        0.00000        0.00000 )
      E*y (        0.00000       -2.03574        0.00000 )
      E*z (        0.00000        0.00000       -0.62715 )
           atom   12  F     Mean Z*:       -0.74639
      E*x (       -0.87939        0.00000        0.41065 )
      E*y (       -0.00000       -0.48165       -0.00000 )
      E*z (        0.29659       -0.00000       -0.87815 )
           atom   13  F     Mean Z*:       -0.74639
      E*x (       -0.58108        0.17223       -0.20532 )
      E*y (        0.17223       -0.77995        0.35563 )
      E*z (       -0.14829        0.25685       -0.87815 )
           atom   14  F     Mean Z*:       -0.74639
      E*x (       -0.58108       -0.17223       -0.20532 )
      E*y (       -0.17223       -0.77995       -0.35563 )
      E*z (       -0.14829       -0.25685       -0.87815 )
           atom   15  F     Mean Z*:       -0.74639
      E*x (       -0.87939        0.00000        0.41065 )
      E*y (       -0.00000       -0.48165       -0.00000 )
      E*z (        0.29659        0.00000       -0.87815 )
           atom   16  F     Mean Z*:       -0.74639
      E*x (       -0.58108        0.17223       -0.20532 )
      E*y (        0.17223       -0.77995        0.35563 )
      E*z (       -0.14829        0.25685       -0.87815 )
           atom   17  F     Mean Z*:       -0.74639
      E*x (       -0.58108       -0.17223       -0.20532 )
      E*y (       -0.17223       -0.77995       -0.35563 )
      E*z (       -0.14829       -0.25685       -0.87815 )
           atom   18  F     Mean Z*:       -1.56621
      E*x (       -2.03574        0.00000        0.00000 )
      E*y (        0.00000       -2.03574        0.00000 )
      E*z (       -0.00000        0.00000       -0.62715 )
           atom   19  F     Mean Z*:       -1.42714
      E*x (       -0.53911        0.00000        0.05784 )
      E*y (        0.00000       -3.01255        0.00000 )
      E*z (        0.09163       -0.00000       -0.72976 )
           atom   20  F     Mean Z*:       -1.42714
      E*x (       -2.39419       -1.07103       -0.02892 )
      E*y (       -1.07103       -1.15747        0.05009 )
      E*z (       -0.04581        0.07935       -0.72976 )
           atom   21  F     Mean Z*:       -1.42714
      E*x (       -2.39419        1.07103       -0.02892 )
      E*y (        1.07103       -1.15747       -0.05009 )
      E*z (       -0.04581       -0.07935       -0.72976 )
           atom   22  F     Mean Z*:       -0.52216
      E*x (       -0.28100        0.00000       -0.00000 )
      E*y (        0.00000       -0.28100       -0.00000 )
      E*z (       -0.00000       -0.00000       -1.00446 )


     Representation #   1 mode #   1

     Self-consistent Calculation

     Pert. #  1: Fermi energy shift (Ry) =    -4.2762E-05     4.7332E-30

      iter #   1 total cpu time :  2472.6 secs   av.it.:   7.9
      thresh= 1.000E-02 alpha_mix =  0.700 |ddv_scf|^2 =  1.900E-07

     Pert. #  1: Fermi energy shift (Ry) =     1.0789E-07     1.8933E-29

      iter #   2 total cpu time :  2547.0 secs   av.it.:  17.4
      thresh= 4.359E-05 alpha_mix =  0.700 |ddv_scf|^2 =  2.148E-07

     Pert. #  1: Fermi energy shift (Ry) =    -4.6993E-07     2.5244E-29

      iter #   3 total cpu time :  2617.6 secs   av.it.:  16.5
      thresh= 4.635E-05 alpha_mix =  0.700 |ddv_scf|^2 =  1.003E-08

     Pert. #  1: Fermi energy shift (Ry) =     3.4838E-08     2.5244E-29

      iter #   4 total cpu time :  2656.5 secs   av.it.:  15.9
      thresh= 1.001E-05 alpha_mix =  0.700 |ddv_scf|^2 =  2.517E-10

     Pert. #  1: Fermi energy shift (Ry) =     1.0462E-08     2.5244E-29

      iter #   5 total cpu time :  2693.7 secs   av.it.:  16.9
      thresh= 1.586E-06 alpha_mix =  0.700 |ddv_scf|^2 =  1.437E-11

     Pert. #  1: Fermi energy shift (Ry) =     4.4837E-11     2.5244E-29

      iter #   6 total cpu time :  2730.1 secs   av.it.:  16.8
      thresh= 3.791E-07 alpha_mix =  0.700 |ddv_scf|^2 =  5.002E-13

     Pert. #  1: Fermi energy shift (Ry) =     1.5768E-09     2.5244E-29

      iter #   7 total cpu time :  2766.2 secs   av.it.:  17.8
      thresh= 7.072E-08 alpha_mix =  0.700 |ddv_scf|^2 =  2.397E-13

     Pert. #  1: Fermi energy shift (Ry) =     9.0845E-10     2.5244E-29

      iter #   8 total cpu time :  2806.4 secs   av.it.:  16.8
      thresh= 4.896E-08 alpha_mix =  0.700 |ddv_scf|^2 =  2.055E-14

     Pert. #  1: Fermi energy shift (Ry) =     1.1465E-09     2.5244E-29

      iter #   9 total cpu time :  2848.3 secs   av.it.:  17.2
      thresh= 1.434E-08 alpha_mix =  0.700 |ddv_scf|^2 =  3.401E-15

     Pert. #  1: Fermi energy shift (Ry) =     1.0553E-09     2.5244E-29

      iter #  10 total cpu time :  2906.2 secs   av.it.:  16.9
      thresh= 5.832E-09 alpha_mix =  0.700 |ddv_scf|^2 =  3.158E-16

     Pert. #  1: Fermi energy shift (Ry) =     1.0446E-09     2.5244E-29

      iter #  11 total cpu time :  3057.7 secs   av.it.:  17.5
      thresh= 1.777E-09 alpha_mix =  0.700 |ddv_scf|^2 =  3.780E-16

     Pert. #  1: Fermi energy shift (Ry) =     1.0486E-09     2.5244E-29

      iter #  12 total cpu time :  3143.5 secs   av.it.:  16.4
      thresh= 1.944E-09 alpha_mix =  0.700 |ddv_scf|^2 =  1.097E-17

     End of self-consistent calculation

     Convergence has been achieved 


     Representation #   2 mode #   2

     Self-consistent Calculation

     Pert. #  1: Fermi energy shift (Ry) =    -5.4328E-06     0.0000E+00

      iter #   1 total cpu time :  3191.8 secs   av.it.:   7.0
      thresh= 1.000E-02 alpha_mix =  0.700 |ddv_scf|^2 =  5.047E-08

     Pert. #  1: Fermi energy shift (Ry) =     4.0750E-08     0.0000E+00

      iter #   2 total cpu time :  3230.0 secs   av.it.:  17.1
      thresh= 2.246E-05 alpha_mix =  0.700 |ddv_scf|^2 =  3.171E-08

     Pert. #  1: Fermi energy shift (Ry) =    -1.0503E-07     0.0000E+00

      iter #   3 total cpu time :  3273.4 secs   av.it.:  16.2
      thresh= 1.781E-05 alpha_mix =  0.700 |ddv_scf|^2 =  1.398E-08

     Pert. #  1: Fermi energy shift (Ry) =     1.9477E-08     0.0000E+00

      iter #   4 total cpu time :  3312.4 secs   av.it.:  15.5
      thresh= 1.182E-05 alpha_mix =  0.700 |ddv_scf|^2 =  2.134E-10

     Pert. #  1: Fermi energy shift (Ry) =     1.5226E-08     0.0000E+00

      iter #   5 total cpu time :  3351.8 secs   av.it.:  16.9
      thresh= 1.461E-06 alpha_mix =  0.700 |ddv_scf|^2 =  1.314E-11

     Pert. #  1: Fermi energy shift (Ry) =    -1.8779E-09     0.0000E+00

      iter #   6 total cpu time :  3389.8 secs   av.it.:  17.1
      thresh= 3.625E-07 alpha_mix =  0.700 |ddv_scf|^2 =  1.443E-12

     Pert. #  1: Fermi energy shift (Ry) =     4.5150E-10     0.0000E+00

      iter #   7 total cpu time :  3427.9 secs   av.it.:  16.9
      thresh= 1.201E-07 alpha_mix =  0.700 |ddv_scf|^2 =  8.633E-14

     Pert. #  1: Fermi energy shift (Ry) =    -5.7077E-10     0.0000E+00

      iter #   8 total cpu time :  3470.1 secs   av.it.:  17.1
      thresh= 2.938E-08 alpha_mix =  0.700 |ddv_scf|^2 =  3.013E-14

     Pert. #  1: Fermi energy shift (Ry) =    -2.4562E-10     0.0000E+00

      iter #   9 total cpu time :  3509.2 secs   av.it.:  17.4
      thresh= 1.736E-08 alpha_mix =  0.700 |ddv_scf|^2 =  7.023E-15

     Pert. #  1: Fermi energy shift (Ry) =    -4.6812E-10     0.0000E+00

      iter #  10 total cpu time :  3546.4 secs   av.it.:  17.1
      thresh= 8.380E-09 alpha_mix =  0.700 |ddv_scf|^2 =  3.165E-15

     Pert. #  1: Fermi energy shift (Ry) =    -4.3454E-10     0.0000E+00

      iter #  11 total cpu time :  3581.5 secs   av.it.:  16.7
      thresh= 5.626E-09 alpha_mix =  0.700 |ddv_scf|^2 =  4.922E-16

     Pert. #  1: Fermi energy shift (Ry) =    -4.1007E-10     0.0000E+00

      iter #  12 total cpu time :  3618.9 secs   av.it.:  17.3
      thresh= 2.219E-09 alpha_mix =  0.700 |ddv_scf|^2 =  7.455E-17

     End of self-consistent calculation

     Convergence has been achieved 


     Representation #   3 mode #   3

     Self-consistent Calculation

     Pert. #  1: Fermi energy shift (Ry) =     1.9695E-06     0.0000E+00

      iter #   1 total cpu time :  3659.1 secs   av.it.:   6.9
      thresh= 1.000E-02 alpha_mix =  0.700 |ddv_scf|^2 =  5.696E-08

     Pert. #  1: Fermi energy shift (Ry) =    -2.0875E-07     0.0000E+00

      iter #   2 total cpu time :  3695.9 secs   av.it.:  17.1
      thresh= 2.387E-05 alpha_mix =  0.700 |ddv_scf|^2 =  9.270E-08

     Pert. #  1: Fermi energy shift (Ry) =     2.3620E-07     0.0000E+00

      iter #   3 total cpu time :  3734.0 secs   av.it.:  15.9
      thresh= 3.045E-05 alpha_mix =  0.700 |ddv_scf|^2 =  8.562E-09

     Pert. #  1: Fermi energy shift (Ry) =     4.1264E-08     0.0000E+00

      iter #   4 total cpu time :  3769.9 secs   av.it.:  15.9
      thresh= 9.253E-06 alpha_mix =  0.700 |ddv_scf|^2 =  3.775E-10

     Pert. #  1: Fermi energy shift (Ry) =    -1.8185E-08     0.0000E+00

      iter #   5 total cpu time :  3807.6 secs   av.it.:  16.9
      thresh= 1.943E-06 alpha_mix =  0.700 |ddv_scf|^2 =  2.982E-11

     Pert. #  1: Fermi energy shift (Ry) =     1.9156E-09     0.0000E+00

      iter #   6 total cpu time :  3844.9 secs   av.it.:  17.1
      thresh= 5.461E-07 alpha_mix =  0.700 |ddv_scf|^2 =  2.803E-12

     Pert. #  1: Fermi energy shift (Ry) =    -1.2967E-09     0.0000E+00

      iter #   7 total cpu time :  3880.6 secs   av.it.:  16.3
      thresh= 1.674E-07 alpha_mix =  0.700 |ddv_scf|^2 =  4.868E-14

     Pert. #  1: Fermi energy shift (Ry) =    -1.4429E-10     0.0000E+00

      iter #   8 total cpu time :  3918.0 secs   av.it.:  17.8
      thresh= 2.206E-08 alpha_mix =  0.700 |ddv_scf|^2 =  3.601E-14

     Pert. #  1: Fermi energy shift (Ry) =    -2.3956E-10     0.0000E+00

      iter #   9 total cpu time :  3956.4 secs   av.it.:  17.1
      thresh= 1.898E-08 alpha_mix =  0.700 |ddv_scf|^2 =  3.768E-15

     Pert. #  1: Fermi energy shift (Ry) =    -1.7470E-10     0.0000E+00

      iter #  10 total cpu time :  3993.0 secs   av.it.:  16.9
      thresh= 6.138E-09 alpha_mix =  0.700 |ddv_scf|^2 =  2.289E-16

     Pert. #  1: Fermi energy shift (Ry) =    -1.7809E-10     0.0000E+00

      iter #  11 total cpu time :  4030.6 secs   av.it.:  17.4
      thresh= 1.513E-09 alpha_mix =  0.700 |ddv_scf|^2 =  1.090E-16

     Pert. #  1: Fermi energy shift (Ry) =    -1.8445E-10     0.0000E+00

      iter #  12 total cpu time :  4067.6 secs   av.it.:  17.2
      thresh= 1.044E-09 alpha_mix =  0.700 |ddv_scf|^2 =  4.924E-17

     End of self-consistent calculation

     Convergence has been achieved 


     Representation #   4 mode #   4

     Self-consistent Calculation

     Pert. #  1: Fermi energy shift (Ry) =     3.3696E-05     3.5341E-28

      iter #   1 total cpu time :  4103.8 secs   av.it.:   7.0
      thresh= 1.000E-02 alpha_mix =  0.700 |ddv_scf|^2 =  1.495E-07

     Pert. #  1: Fermi energy shift (Ry) =    -3.1133E-07     4.5438E-28

      iter #   2 total cpu time :  4139.7 secs   av.it.:  17.1
      thresh= 3.867E-05 alpha_mix =  0.700 |ddv_scf|^2 =  3.441E-07

     Pert. #  1: Fermi energy shift (Ry) =     2.9896E-07     4.0390E-28

      iter #   3 total cpu time :  4175.1 secs   av.it.:  15.8
      thresh= 5.866E-05 alpha_mix =  0.700 |ddv_scf|^2 =  1.698E-08

     Pert. #  1: Fermi energy shift (Ry) =     1.1318E-07     4.0390E-28

      iter #   4 total cpu time :  4210.3 secs   av.it.:  15.8
      thresh= 1.303E-05 alpha_mix =  0.700 |ddv_scf|^2 =  5.255E-10

     Pert. #  1: Fermi energy shift (Ry) =    -1.5638E-08     4.0390E-28

      iter #   5 total cpu time :  4246.5 secs   av.it.:  17.1
      thresh= 2.292E-06 alpha_mix =  0.700 |ddv_scf|^2 =  5.355E-11

     Pert. #  1: Fermi energy shift (Ry) =     5.2723E-09     4.0390E-28

      iter #   6 total cpu time :  4280.4 secs   av.it.:  16.8
      thresh= 7.318E-07 alpha_mix =  0.700 |ddv_scf|^2 =  3.900E-12

     Pert. #  1: Fermi energy shift (Ry) =    -5.9797E-10     4.0390E-28

      iter #   7 total cpu time :  4314.4 secs   av.it.:  16.2
      thresh= 1.975E-07 alpha_mix =  0.700 |ddv_scf|^2 =  8.762E-14

     Pert. #  1: Fermi energy shift (Ry) =     1.0814E-09     4.0390E-28

      iter #   8 total cpu time :  4348.9 secs   av.it.:  17.5
      thresh= 2.960E-08 alpha_mix =  0.700 |ddv_scf|^2 =  4.283E-14

     Pert. #  1: Fermi energy shift (Ry) =     9.9845E-10     4.0390E-28

      iter #   9 total cpu time :  4383.7 secs   av.it.:  17.2
      thresh= 2.070E-08 alpha_mix =  0.700 |ddv_scf|^2 =  6.636E-15

     Pert. #  1: Fermi energy shift (Ry) =     9.8354E-10     4.0390E-28

      iter #  10 total cpu time :  4416.6 secs   av.it.:  16.6
      thresh= 8.146E-09 alpha_mix =  0.700 |ddv_scf|^2 =  4.143E-16

     Pert. #  1: Fermi energy shift (Ry) =     9.9618E-10     4.0390E-28

      iter #  11 total cpu time :  4451.3 secs   av.it.:  17.2
      thresh= 2.035E-09 alpha_mix =  0.700 |ddv_scf|^2 =  1.335E-16

     Pert. #  1: Fermi energy shift (Ry) =     9.7923E-10     4.0390E-28

      iter #  12 total cpu time :  4486.6 secs   av.it.:  17.1
      thresh= 1.155E-09 alpha_mix =  0.700 |ddv_scf|^2 =  2.428E-17

     End of self-consistent calculation

     Convergence has been achieved 


     Representation #   5 mode #   5

     Self-consistent Calculation

     Pert. #  1: Fermi energy shift (Ry) =     1.7534E-05     2.0195E-28

      iter #   1 total cpu time :  4621.6 secs   av.it.:   8.2
      thresh= 1.000E-02 alpha_mix =  0.700 |ddv_scf|^2 =  1.408E-06

     Pert. #  1: Fermi energy shift (Ry) =    -3.0891E-08     1.0097E-28

      iter #   2 total cpu time :  4798.2 secs   av.it.:  16.8
      thresh= 1.186E-04 alpha_mix =  0.700 |ddv_scf|^2 =  5.511E-06

     Pert. #  1: Fermi energy shift (Ry) =    -5.7778E-07     1.0097E-28

      iter #   3 total cpu time :  4913.4 secs   av.it.:  14.9
      thresh= 2.347E-04 alpha_mix =  0.700 |ddv_scf|^2 =  1.018E-08

     Pert. #  1: Fermi energy shift (Ry) =     1.3323E-08     1.0097E-28

      iter #   4 total cpu time :  4998.1 secs   av.it.:  16.9
      thresh= 1.009E-05 alpha_mix =  0.700 |ddv_scf|^2 =  1.408E-09

     Pert. #  1: Fermi energy shift (Ry) =    -3.7945E-09     1.0097E-28

      iter #   5 total cpu time :  5040.0 secs   av.it.:  15.6
      thresh= 3.752E-06 alpha_mix =  0.700 |ddv_scf|^2 =  1.539E-11

     Pert. #  1: Fermi energy shift (Ry) =    -6.8064E-10     1.0097E-28

      iter #   6 total cpu time :  5108.6 secs   av.it.:  16.9
      thresh= 3.923E-07 alpha_mix =  0.700 |ddv_scf|^2 =  1.365E-12

     Pert. #  1: Fermi energy shift (Ry) =    -3.7471E-09     1.0097E-28

      iter #   7 total cpu time :  5148.5 secs   av.it.:  16.8
      thresh= 1.168E-07 alpha_mix =  0.700 |ddv_scf|^2 =  1.796E-13

     Pert. #  1: Fermi energy shift (Ry) =    -2.4391E-09     1.0097E-28

      iter #   8 total cpu time :  5187.0 secs   av.it.:  16.9
      thresh= 4.238E-08 alpha_mix =  0.700 |ddv_scf|^2 =  3.442E-14

     Pert. #  1: Fermi energy shift (Ry) =    -2.9578E-09     1.0097E-28

      iter #   9 total cpu time :  5223.4 secs   av.it.:  16.9
      thresh= 1.855E-08 alpha_mix =  0.700 |ddv_scf|^2 =  4.165E-15

     Pert. #  1: Fermi energy shift (Ry) =    -2.7549E-09     1.0097E-28

      iter #  10 total cpu time :  5258.1 secs   av.it.:  17.6
      thresh= 6.454E-09 alpha_mix =  0.700 |ddv_scf|^2 =  3.082E-15

     Pert. #  1: Fermi energy shift (Ry) =    -2.7111E-09     1.0097E-28

      iter #  11 total cpu time :  5289.9 secs   av.it.:  16.8
      thresh= 5.551E-09 alpha_mix =  0.700 |ddv_scf|^2 =  1.354E-16

     Pert. #  1: Fermi energy shift (Ry) =    -2.7781E-09     1.0097E-28

      iter #  12 total cpu time :  5326.0 secs   av.it.:  17.1
      thresh= 1.164E-09 alpha_mix =  0.700 |ddv_scf|^2 =  2.416E-17

     End of self-consistent calculation

     Convergence has been achieved 


     Representation #   6 mode #   6

     Self-consistent Calculation

     Pert. #  1: Fermi energy shift (Ry) =     5.0950E-06     5.5536E-28

      iter #   1 total cpu time :  5360.6 secs   av.it.:   7.0
      thresh= 1.000E-02 alpha_mix =  0.700 |ddv_scf|^2 =  2.412E-07

     Pert. #  1: Fermi energy shift (Ry) =     2.8138E-07     2.5244E-28

      iter #   2 total cpu time :  5396.3 secs   av.it.:  16.8
      thresh= 4.911E-05 alpha_mix =  0.700 |ddv_scf|^2 =  6.455E-07

     Pert. #  1: Fermi energy shift (Ry) =    -1.0952E-07     2.0195E-28

      iter #   3 total cpu time :  5431.6 secs   av.it.:  15.1
      thresh= 8.034E-05 alpha_mix =  0.700 |ddv_scf|^2 =  1.598E-08

     Pert. #  1: Fermi energy shift (Ry) =    -6.1541E-09     2.5244E-28

      iter #   4 total cpu time :  5466.8 secs   av.it.:  15.9
      thresh= 1.264E-05 alpha_mix =  0.700 |ddv_scf|^2 =  4.111E-10

     Pert. #  1: Fermi energy shift (Ry) =     1.2119E-08     2.5244E-28

      iter #   5 total cpu time :  5511.2 secs   av.it.:  16.9
      thresh= 2.028E-06 alpha_mix =  0.700 |ddv_scf|^2 =  8.209E-11

     Pert. #  1: Fermi energy shift (Ry) =    -8.9260E-09     2.5244E-28

      iter #   6 total cpu time :  5548.8 secs   av.it.:  16.3
      thresh= 9.061E-07 alpha_mix =  0.700 |ddv_scf|^2 =  1.148E-12

     Pert. #  1: Fermi energy shift (Ry) =     7.8950E-10     2.5244E-28

      iter #   7 total cpu time :  5589.3 secs   av.it.:  17.0
      thresh= 1.071E-07 alpha_mix =  0.700 |ddv_scf|^2 =  6.416E-14

     Pert. #  1: Fermi energy shift (Ry) =     2.6730E-10     2.5244E-28

      iter #   8 total cpu time :  5626.0 secs   av.it.:  17.8
      thresh= 2.533E-08 alpha_mix =  0.700 |ddv_scf|^2 =  3.264E-14

     Pert. #  1: Fermi energy shift (Ry) =     5.6279E-10     2.5244E-28

      iter #   9 total cpu time :  5661.4 secs   av.it.:  17.1
      thresh= 1.807E-08 alpha_mix =  0.700 |ddv_scf|^2 =  3.387E-15

     Pert. #  1: Fermi energy shift (Ry) =     4.2091E-10     2.5244E-28

      iter #  10 total cpu time :  5699.4 secs   av.it.:  17.4
      thresh= 5.820E-09 alpha_mix =  0.700 |ddv_scf|^2 =  4.143E-16

     Pert. #  1: Fermi energy shift (Ry) =     4.3594E-10     2.5244E-28

      iter #  11 total cpu time :  5735.6 secs   av.it.:  16.9
      thresh= 2.035E-09 alpha_mix =  0.700 |ddv_scf|^2 =  6.913E-17

     End of self-consistent calculation

     Convergence has been achieved 


     Representation #   7 mode #   7

     Self-consistent Calculation

     Pert. #  1: Fermi energy shift (Ry) =     1.6874E-06    -5.9165E-31

      iter #   1 total cpu time :  5771.8 secs   av.it.:   7.0
      thresh= 1.000E-02 alpha_mix =  0.700 |ddv_scf|^2 =  8.914E-08

     Pert. #  1: Fermi energy shift (Ry) =     1.1013E-07    -3.7865E-29

      iter #   2 total cpu time :  5807.5 secs   av.it.:  16.9
      thresh= 2.986E-05 alpha_mix =  0.700 |ddv_scf|^2 =  2.197E-07

     Pert. #  1: Fermi energy shift (Ry) =    -1.7332E-07    -1.8933E-29

      iter #   3 total cpu time :  5842.7 secs   av.it.:  15.2
      thresh= 4.688E-05 alpha_mix =  0.700 |ddv_scf|^2 =  8.083E-09

     Pert. #  1: Fermi energy shift (Ry) =    -1.7114E-08    -1.8933E-29

      iter #   4 total cpu time :  5880.4 secs   av.it.:  15.9
      thresh= 8.991E-06 alpha_mix =  0.700 |ddv_scf|^2 =  1.967E-10

     Pert. #  1: Fermi energy shift (Ry) =     7.9796E-09    -1.8933E-29

      iter #   5 total cpu time :  5919.3 secs   av.it.:  17.2
      thresh= 1.403E-06 alpha_mix =  0.700 |ddv_scf|^2 =  4.000E-11

     Pert. #  1: Fermi energy shift (Ry) =    -5.1949E-09    -1.8933E-29

      iter #   6 total cpu time :  5953.7 secs   av.it.:  16.6
      thresh= 6.324E-07 alpha_mix =  0.700 |ddv_scf|^2 =  1.332E-12

     Pert. #  1: Fermi energy shift (Ry) =    -4.4382E-10    -1.8933E-29

      iter #   7 total cpu time :  5990.1 secs   av.it.:  16.5
      thresh= 1.154E-07 alpha_mix =  0.700 |ddv_scf|^2 =  4.242E-14

     Pert. #  1: Fermi energy shift (Ry) =    -1.0179E-09    -1.8933E-29

      iter #   8 total cpu time :  6028.2 secs   av.it.:  17.7
      thresh= 2.060E-08 alpha_mix =  0.700 |ddv_scf|^2 =  1.460E-14

     Pert. #  1: Fermi energy shift (Ry) =    -7.9543E-10    -1.8933E-29

      iter #   9 total cpu time :  6066.5 secs   av.it.:  17.6
      thresh= 1.208E-08 alpha_mix =  0.700 |ddv_scf|^2 =  3.901E-15

     Pert. #  1: Fermi energy shift (Ry) =    -9.1358E-10    -1.8933E-29

      iter #  10 total cpu time :  6101.3 secs   av.it.:  16.9
      thresh= 6.246E-09 alpha_mix =  0.700 |ddv_scf|^2 =  2.232E-16

     Pert. #  1: Fermi energy shift (Ry) =    -9.0950E-10    -1.8933E-29

      iter #  11 total cpu time :  6134.5 secs   av.it.:  17.2
      thresh= 1.494E-09 alpha_mix =  0.700 |ddv_scf|^2 =  1.438E-17

     End of self-consistent calculation

     Convergence has been achieved 


     Representation #   8 mode #   8

     Self-consistent Calculation

     Pert. #  1: Fermi energy shift (Ry) =     7.1575E-06     0.0000E+00

      iter #   1 total cpu time :  6167.8 secs   av.it.:   7.0
      thresh= 1.000E-02 alpha_mix =  0.700 |ddv_scf|^2 =  1.134E-07

     Pert. #  1: Fermi energy shift (Ry) =    -1.2048E-07     0.0000E+00

      iter #   2 total cpu time :  6202.3 secs   av.it.:  17.1
      thresh= 3.367E-05 alpha_mix =  0.700 |ddv_scf|^2 =  2.557E-07

     Pert. #  1: Fermi energy shift (Ry) =    -3.8637E-09     0.0000E+00

      iter #   3 total cpu time :  6235.9 secs   av.it.:  15.4
      thresh= 5.057E-05 alpha_mix =  0.700 |ddv_scf|^2 =  1.103E-08

     Pert. #  1: Fermi energy shift (Ry) =     8.7869E-09     0.0000E+00

      iter #   4 total cpu time :  6274.9 secs   av.it.:  15.9
      thresh= 1.050E-05 alpha_mix =  0.700 |ddv_scf|^2 =  4.078E-10

     Pert. #  1: Fermi energy shift (Ry) =    -2.0813E-08     0.0000E+00

      iter #   5 total cpu time :  6310.0 secs   av.it.:  16.5
      thresh= 2.019E-06 alpha_mix =  0.700 |ddv_scf|^2 =  1.594E-11

     Pert. #  1: Fermi energy shift (Ry) =    -1.8871E-10     0.0000E+00

      iter #   6 total cpu time :  6345.1 secs   av.it.:  16.9
      thresh= 3.992E-07 alpha_mix =  0.700 |ddv_scf|^2 =  2.024E-12

     Pert. #  1: Fermi energy shift (Ry) =    -1.5890E-09     0.0000E+00

      iter #   7 total cpu time :  6381.6 secs   av.it.:  17.1
      thresh= 1.423E-07 alpha_mix =  0.700 |ddv_scf|^2 =  6.051E-14

     Pert. #  1: Fermi energy shift (Ry) =    -6.6699E-10     0.0000E+00

      iter #   8 total cpu time :  6415.8 secs   av.it.:  17.4
      thresh= 2.460E-08 alpha_mix =  0.700 |ddv_scf|^2 =  3.108E-14

     Pert. #  1: Fermi energy shift (Ry) =    -8.3185E-10     0.0000E+00

      iter #   9 total cpu time :  6450.0 secs   av.it.:  16.9
      thresh= 1.763E-08 alpha_mix =  0.700 |ddv_scf|^2 =  5.632E-15

     Pert. #  1: Fermi energy shift (Ry) =    -7.2699E-10     0.0000E+00

      iter #  10 total cpu time :  6484.8 secs   av.it.:  17.1
      thresh= 7.505E-09 alpha_mix =  0.700 |ddv_scf|^2 =  2.812E-15

     Pert. #  1: Fermi energy shift (Ry) =    -7.4810E-10     0.0000E+00

      iter #  11 total cpu time :  6516.1 secs   av.it.:  16.1
      thresh= 5.303E-09 alpha_mix =  0.700 |ddv_scf|^2 =  9.339E-17

     End of self-consistent calculation

     Convergence has been achieved 


     Representation #   9 mode #   9

     Self-consistent Calculation

     Pert. #  1: Fermi energy shift (Ry) =     2.6470E-23     2.8026E-45

      iter #   1 total cpu time :  6553.1 secs   av.it.:   7.0
      thresh= 1.000E-02 alpha_mix =  0.700 |ddv_scf|^2 =  9.727E-09

     Pert. #  1: Fermi energy shift (Ry) =    -1.0340E-25     7.4736E-45

      iter #   2 total cpu time :  6586.7 secs   av.it.:  17.0
      thresh= 9.862E-06 alpha_mix =  0.700 |ddv_scf|^2 =  1.730E-10

     Pert. #  1: Fermi energy shift (Ry) =    -2.1541E-27     1.4947E-44

      iter #   3 total cpu time :  6623.0 secs   av.it.:  17.3
      thresh= 1.315E-06 alpha_mix =  0.700 |ddv_scf|^2 =  5.195E-12

     Pert. #  1: Fermi energy shift (Ry) =    -4.0390E-28     0.0000E+00

      iter #   4 total cpu time :  6657.8 secs   av.it.:  16.7
      thresh= 2.279E-07 alpha_mix =  0.700 |ddv_scf|^2 =  9.994E-14

     Pert. #  1: Fermi energy shift (Ry) =    -2.5244E-29     1.1210E-44

      iter #   5 total cpu time :  6693.9 secs   av.it.:  16.2
      thresh= 3.161E-08 alpha_mix =  0.700 |ddv_scf|^2 =  1.102E-15

     Pert. #  1: Fermi energy shift (Ry) =     2.5244E-29     0.0000E+00

      iter #   6 total cpu time :  6727.0 secs   av.it.:  16.2
      thresh= 3.319E-09 alpha_mix =  0.700 |ddv_scf|^2 =  2.342E-17

     End of self-consistent calculation

     Convergence has been achieved 


     Representation #  10 mode #  10

     Self-consistent Calculation

     Pert. #  1: Fermi energy shift (Ry) =     0.0000E+00     7.4736E-45

      iter #   1 total cpu time :  6761.1 secs   av.it.:   6.8
      thresh= 1.000E-02 alpha_mix =  0.700 |ddv_scf|^2 =  8.874E-09

     Pert. #  1: Fermi energy shift (Ry) =    -1.7233E-26     0.0000E+00

      iter #   2 total cpu time :  6795.1 secs   av.it.:  17.1
      thresh= 9.420E-06 alpha_mix =  0.700 |ddv_scf|^2 =  1.204E-10

     Pert. #  1: Fermi energy shift (Ry) =     0.0000E+00     0.0000E+00

      iter #   3 total cpu time :  6831.8 secs   av.it.:  17.1
      thresh= 1.097E-06 alpha_mix =  0.700 |ddv_scf|^2 =  4.334E-12

     Pert. #  1: Fermi energy shift (Ry) =    -5.3853E-28     7.4736E-45

      iter #   4 total cpu time :  6868.4 secs   av.it.:  16.8
      thresh= 2.082E-07 alpha_mix =  0.700 |ddv_scf|^2 =  1.133E-13

     Pert. #  1: Fermi energy shift (Ry) =     0.0000E+00     7.4736E-45

      iter #   5 total cpu time :  6904.0 secs   av.it.:  16.1
      thresh= 3.367E-08 alpha_mix =  0.700 |ddv_scf|^2 =  1.317E-15

     Pert. #  1: Fermi energy shift (Ry) =     1.3463E-28     7.4736E-45

      iter #   6 total cpu time :  6938.5 secs   av.it.:  16.2
      thresh= 3.629E-09 alpha_mix =  0.700 |ddv_scf|^2 =  3.137E-17

     End of self-consistent calculation

     Convergence has been achieved 


     Representation #  11 mode #  11

     Self-consistent Calculation

     Pert. #  1: Fermi energy shift (Ry) =    -2.2058E-24     7.4736E-45

      iter #   1 total cpu time :  6971.4 secs   av.it.:   7.0
      thresh= 1.000E-02 alpha_mix =  0.700 |ddv_scf|^2 =  1.413E-08

     Pert. #  1: Fermi energy shift (Ry) =     0.0000E+00     7.4736E-45

      iter #   2 total cpu time :  7004.4 secs   av.it.:  17.0
      thresh= 1.189E-05 alpha_mix =  0.700 |ddv_scf|^2 =  1.073E-09

     Pert. #  1: Fermi energy shift (Ry) =     0.0000E+00     7.4736E-45

      iter #   3 total cpu time :  7040.1 secs   av.it.:  16.8
      thresh= 3.276E-06 alpha_mix =  0.700 |ddv_scf|^2 =  2.818E-12

     Pert. #  1: Fermi energy shift (Ry) =     0.0000E+00     7.4736E-45

      iter #   4 total cpu time :  7075.3 secs   av.it.:  16.6
      thresh= 1.679E-07 alpha_mix =  0.700 |ddv_scf|^2 =  3.637E-14

     Pert. #  1: Fermi energy shift (Ry) =     0.0000E+00     7.4736E-45

      iter #   5 total cpu time :  7114.5 secs   av.it.:  16.5
      thresh= 1.907E-08 alpha_mix =  0.700 |ddv_scf|^2 =  1.248E-15

     Pert. #  1: Fermi energy shift (Ry) =     0.0000E+00     7.4736E-45

      iter #   6 total cpu time :  7148.0 secs   av.it.:  16.9
      thresh= 3.533E-09 alpha_mix =  0.700 |ddv_scf|^2 =  1.194E-17

     End of self-consistent calculation

     Convergence has been achieved 


     Representation #  12 modes #  12  13

     Self-consistent Calculation

     Pert. #  1: Fermi energy shift (Ry) =     1.0588E-22    -2.2421E-44
     Pert. #  2: Fermi energy shift (Ry) =     3.5293E-23     9.3420E-46

      iter #   1 total cpu time :  7197.1 secs   av.it.:   7.0
      thresh= 1.000E-02 alpha_mix =  0.700 |ddv_scf|^2 =  4.609E-09

     Pert. #  1: Fermi energy shift (Ry) =     6.4623E-27     0.0000E+00
     Pert. #  2: Fermi energy shift (Ry) =     9.4781E-26    -1.3079E-44

      iter #   2 total cpu time :  7268.6 secs   av.it.:  19.5
      thresh= 6.789E-06 alpha_mix =  0.700 |ddv_scf|^2 =  7.485E-09

     Pert. #  1: Fermi energy shift (Ry) =     1.0340E-25    -6.7262E-44
     Pert. #  2: Fermi energy shift (Ry) =     0.0000E+00    -7.4736E-45

      iter #   3 total cpu time :  7335.4 secs   av.it.:  18.0
      thresh= 8.652E-06 alpha_mix =  0.700 |ddv_scf|^2 =  1.438E-08

     Pert. #  1: Fermi energy shift (Ry) =     6.8932E-25    -6.7262E-44
     Pert. #  2: Fermi energy shift (Ry) =     3.9636E-25    -7.4736E-45

      iter #   4 total cpu time :  7398.8 secs   av.it.:  16.9
      thresh= 1.199E-05 alpha_mix =  0.700 |ddv_scf|^2 =  5.610E-11

     Pert. #  1: Fermi energy shift (Ry) =    -1.5079E-26     1.1210E-44
     Pert. #  2: Fermi energy shift (Ry) =     4.3082E-27     0.0000E+00

      iter #   5 total cpu time :  7468.4 secs   av.it.:  19.0
      thresh= 7.490E-07 alpha_mix =  0.700 |ddv_scf|^2 =  8.392E-12

     Pert. #  1: Fermi energy shift (Ry) =    -1.0771E-27     1.1210E-44
     Pert. #  2: Fermi energy shift (Ry) =     7.0009E-27     0.0000E+00

      iter #   6 total cpu time :  7533.5 secs   av.it.:  18.5
      thresh= 2.897E-07 alpha_mix =  0.700 |ddv_scf|^2 =  1.758E-13

     Pert. #  1: Fermi energy shift (Ry) =     1.9017E-27     1.1210E-44
     Pert. #  2: Fermi energy shift (Ry) =     1.9522E-27     0.0000E+00

      iter #   7 total cpu time :  7595.9 secs   av.it.:  18.0
      thresh= 4.193E-08 alpha_mix =  0.700 |ddv_scf|^2 =  1.294E-14

     Pert. #  1: Fermi energy shift (Ry) =    -1.0434E-27    -3.7368E-44
     Pert. #  2: Fermi energy shift (Ry) =     6.7316E-29     0.0000E+00

      iter #   8 total cpu time :  7658.6 secs   av.it.:  18.2
      thresh= 1.137E-08 alpha_mix =  0.700 |ddv_scf|^2 =  1.089E-15

     Pert. #  1: Fermi energy shift (Ry) =     1.1780E-28    -3.7368E-44
     Pert. #  2: Fermi energy shift (Ry) =     1.5988E-28     0.0000E+00

      iter #   9 total cpu time :  7722.9 secs   av.it.:  19.9
      thresh= 3.300E-09 alpha_mix =  0.700 |ddv_scf|^2 =  2.049E-15

     Pert. #  1: Fermi energy shift (Ry) =     1.3463E-28    -3.7368E-44
     Pert. #  2: Fermi energy shift (Ry) =     1.0939E-28     0.0000E+00

      iter #  10 total cpu time :  7782.6 secs   av.it.:  17.9
      thresh= 4.527E-09 alpha_mix =  0.700 |ddv_scf|^2 =  4.453E-17

     End of self-consistent calculation

     Convergence has been achieved 


     Representation #  13 modes #  14  15

     Self-consistent Calculation

     Pert. #  1: Fermi energy shift (Ry) =     8.8233E-24     8.4078E-45
     Pert. #  2: Fermi energy shift (Ry) =     1.6544E-24     2.3355E-45

      iter #   1 total cpu time :  7831.5 secs   av.it.:   6.7
      thresh= 1.000E-02 alpha_mix =  0.700 |ddv_scf|^2 =  2.654E-09

     Pert. #  1: Fermi energy shift (Ry) =    -4.1359E-25    -1.4947E-44
     Pert. #  2: Fermi energy shift (Ry) =    -6.8932E-26    -7.4736E-45

      iter #   2 total cpu time :  7897.9 secs   av.it.:  19.5
      thresh= 5.151E-06 alpha_mix =  0.700 |ddv_scf|^2 =  8.296E-09

     Pert. #  1: Fermi energy shift (Ry) =     1.1201E-25     2.0552E-44
     Pert. #  2: Fermi energy shift (Ry) =     8.6165E-27    -1.4947E-44

      iter #   3 total cpu time :  7962.4 secs   av.it.:  17.5
      thresh= 9.108E-06 alpha_mix =  0.700 |ddv_scf|^2 =  5.752E-09

     Pert. #  1: Fermi energy shift (Ry) =     8.6165E-26     2.0552E-44
     Pert. #  2: Fermi energy shift (Ry) =    -8.6165E-26     1.1210E-44

      iter #   4 total cpu time :  8022.2 secs   av.it.:  16.8
      thresh= 7.584E-06 alpha_mix =  0.700 |ddv_scf|^2 =  1.901E-11

     Pert. #  1: Fermi energy shift (Ry) =     2.5849E-26     3.7368E-45
     Pert. #  2: Fermi energy shift (Ry) =     1.0771E-26     1.4013E-45

      iter #   5 total cpu time :  8089.5 secs   av.it.:  18.9
      thresh= 4.360E-07 alpha_mix =  0.700 |ddv_scf|^2 =  1.579E-12

     Pert. #  1: Fermi energy shift (Ry) =     6.0585E-28     7.4736E-45
     Pert. #  2: Fermi energy shift (Ry) =     2.6926E-28     2.8026E-45

      iter #   6 total cpu time :  8152.5 secs   av.it.:  18.8
      thresh= 1.257E-07 alpha_mix =  0.700 |ddv_scf|^2 =  6.591E-14

     Pert. #  1: Fermi energy shift (Ry) =     9.4243E-28     4.6710E-45
     Pert. #  2: Fermi energy shift (Ry) =     0.0000E+00     2.3355E-45

      iter #   7 total cpu time :  8223.9 secs   av.it.:  18.9
      thresh= 2.567E-08 alpha_mix =  0.700 |ddv_scf|^2 =  4.499E-15

     Pert. #  1: Fermi energy shift (Ry) =     4.0390E-28     4.6710E-45
     Pert. #  2: Fermi energy shift (Ry) =     2.0195E-28     2.3355E-45

      iter #   8 total cpu time :  8291.8 secs   av.it.:  19.8
      thresh= 6.707E-09 alpha_mix =  0.700 |ddv_scf|^2 =  4.657E-15

     Pert. #  1: Fermi energy shift (Ry) =     0.0000E+00     4.6710E-45
     Pert. #  2: Fermi energy shift (Ry) =    -3.3658E-28     2.3355E-45

      iter #   9 total cpu time :  8354.6 secs   av.it.:  17.9
      thresh= 6.824E-09 alpha_mix =  0.700 |ddv_scf|^2 =  1.360E-15

     Pert. #  1: Fermi energy shift (Ry) =     8.7511E-28     4.6710E-45
     Pert. #  2: Fermi energy shift (Ry) =     1.6829E-28     2.3355E-45

      iter #  10 total cpu time :  8420.4 secs   av.it.:  17.9
      thresh= 3.687E-09 alpha_mix =  0.700 |ddv_scf|^2 =  1.247E-16

     Pert. #  1: Fermi energy shift (Ry) =     3.0292E-28     4.6710E-45
     Pert. #  2: Fermi energy shift (Ry) =     2.0195E-28     2.3355E-45

      iter #  11 total cpu time :  8484.5 secs   av.it.:  18.9
      thresh= 1.116E-09 alpha_mix =  0.700 |ddv_scf|^2 =  7.282E-17

     End of self-consistent calculation

     Convergence has been achieved 


     Representation #  14 modes #  16  17

     Self-consistent Calculation

     Pert. #  1: Fermi energy shift (Ry) =     2.8234E-22    -1.8684E-45
     Pert. #  2: Fermi energy shift (Ry) =    -1.6941E-21     3.1763E-44

      iter #   1 total cpu time :  8537.6 secs   av.it.:   8.0
      thresh= 1.000E-02 alpha_mix =  0.700 |ddv_scf|^2 =  1.895E-08

     Pert. #  1: Fermi energy shift (Ry) =    -2.7573E-25    -5.6052E-45
     Pert. #  2: Fermi energy shift (Ry) =    -1.0340E-24     2.8026E-44

      iter #   2 total cpu time :  8602.0 secs   av.it.:  19.0
      thresh= 1.377E-05 alpha_mix =  0.700 |ddv_scf|^2 =  1.834E-08

     Pert. #  1: Fermi energy shift (Ry) =    -6.8932E-25     0.0000E+00
     Pert. #  2: Fermi energy shift (Ry) =     4.1359E-25    -3.7368E-44

      iter #   3 total cpu time :  8666.3 secs   av.it.:  18.9
      thresh= 1.354E-05 alpha_mix =  0.700 |ddv_scf|^2 =  2.455E-08

     Pert. #  1: Fermi energy shift (Ry) =     6.2039E-25     7.4736E-45
     Pert. #  2: Fermi energy shift (Ry) =    -9.6504E-25     4.4842E-44

      iter #   4 total cpu time :  8728.7 secs   av.it.:  16.7
      thresh= 1.567E-05 alpha_mix =  0.700 |ddv_scf|^2 =  3.339E-10

     Pert. #  1: Fermi energy shift (Ry) =     3.4466E-26    -1.8684E-45
     Pert. #  2: Fermi energy shift (Ry) =     4.3082E-26     3.1763E-44

      iter #   5 total cpu time :  8792.5 secs   av.it.:  18.4
      thresh= 1.827E-06 alpha_mix =  0.700 |ddv_scf|^2 =  6.298E-12

     Pert. #  1: Fermi energy shift (Ry) =    -1.0771E-27    -1.8684E-45
     Pert. #  2: Fermi energy shift (Ry) =     1.6156E-27     3.1763E-44

      iter #   6 total cpu time :  8857.8 secs   av.it.:  18.8
      thresh= 2.510E-07 alpha_mix =  0.700 |ddv_scf|^2 =  1.308E-13

     Pert. #  1: Fermi energy shift (Ry) =    -5.3853E-28    -1.8684E-45
     Pert. #  2: Fermi energy shift (Ry) =    -1.0771E-27     3.1763E-44

      iter #   7 total cpu time :  8922.4 secs   av.it.:  18.9
      thresh= 3.616E-08 alpha_mix =  0.700 |ddv_scf|^2 =  2.937E-14

     Pert. #  1: Fermi energy shift (Ry) =     2.6926E-28    -1.8684E-45
     Pert. #  2: Fermi energy shift (Ry) =     8.7511E-28     3.1763E-44

      iter #   8 total cpu time :  8986.7 secs   av.it.:  19.2
      thresh= 1.714E-08 alpha_mix =  0.700 |ddv_scf|^2 =  1.646E-14

     Pert. #  1: Fermi energy shift (Ry) =     2.6926E-28    -1.8684E-45
     Pert. #  2: Fermi energy shift (Ry) =    -6.0585E-28     3.1763E-44

      iter #   9 total cpu time :  9050.3 secs   av.it.:  18.7
      thresh= 1.283E-08 alpha_mix =  0.700 |ddv_scf|^2 =  1.265E-15

     Pert. #  1: Fermi energy shift (Ry) =     2.6926E-28    -1.8684E-45
     Pert. #  2: Fermi energy shift (Ry) =     6.7316E-28     3.1763E-44

      iter #  10 total cpu time :  9114.4 secs   av.it.:  18.4
      thresh= 3.557E-09 alpha_mix =  0.700 |ddv_scf|^2 =  1.420E-15

     Pert. #  1: Fermi energy shift (Ry) =     8.0779E-28    -1.8684E-45
     Pert. #  2: Fermi energy shift (Ry) =    -4.0390E-28     3.1763E-44

      iter #  11 total cpu time :  9180.6 secs   av.it.:  17.9
      thresh= 3.769E-09 alpha_mix =  0.700 |ddv_scf|^2 =  1.910E-16

     Pert. #  1: Fermi energy shift (Ry) =     0.0000E+00    -1.8684E-45
     Pert. #  2: Fermi energy shift (Ry) =     4.0390E-28     3.1763E-44

      iter #  12 total cpu time :  9242.5 secs   av.it.:  18.3
      thresh= 1.382E-09 alpha_mix =  0.700 |ddv_scf|^2 =  4.499E-18

     End of self-consistent calculation

     Convergence has been achieved 


     Representation #  15 modes #  18  19

     Self-consistent Calculation

     Pert. #  1: Fermi energy shift (Ry) =    -3.5293E-23     1.8684E-45
     Pert. #  2: Fermi energy shift (Ry) =     0.0000E+00     2.5690E-45

      iter #   1 total cpu time :  9286.9 secs   av.it.:   7.0
      thresh= 1.000E-02 alpha_mix =  0.700 |ddv_scf|^2 =  8.547E-09

     Pert. #  1: Fermi energy shift (Ry) =    -3.7912E-25     3.7368E-45
     Pert. #  2: Fermi energy shift (Ry) =     2.0680E-25     1.8684E-44

      iter #   2 total cpu time :  9350.2 secs   av.it.:  19.6
      thresh= 9.245E-06 alpha_mix =  0.700 |ddv_scf|^2 =  1.209E-07

     Pert. #  1: Fermi energy shift (Ry) =     8.2718E-25    -5.9789E-44
     Pert. #  2: Fermi energy shift (Ry) =    -1.3786E-24     2.9894E-44

      iter #   3 total cpu time :  9407.3 secs   av.it.:  16.4
      thresh= 3.477E-05 alpha_mix =  0.700 |ddv_scf|^2 =  2.268E-09

     Pert. #  1: Fermi energy shift (Ry) =     8.6165E-27    -3.5032E-45
     Pert. #  2: Fermi energy shift (Ry) =     1.9387E-26    -1.4013E-45

      iter #   4 total cpu time :  9467.4 secs   av.it.:  17.2
      thresh= 4.762E-06 alpha_mix =  0.700 |ddv_scf|^2 =  3.518E-11

     Pert. #  1: Fermi energy shift (Ry) =     4.3082E-27    -2.8026E-45
     Pert. #  2: Fermi energy shift (Ry) =    -4.3082E-27    -2.1019E-45

      iter #   5 total cpu time :  9532.2 secs   av.it.:  18.8
      thresh= 5.931E-07 alpha_mix =  0.700 |ddv_scf|^2 =  4.740E-12

     Pert. #  1: Fermi energy shift (Ry) =     0.0000E+00    -2.8026E-45
     Pert. #  2: Fermi energy shift (Ry) =    -3.7697E-27    -2.1019E-45

      iter #   6 total cpu time :  9592.1 secs   av.it.:  18.0
      thresh= 2.177E-07 alpha_mix =  0.700 |ddv_scf|^2 =  2.080E-13

     Pert. #  1: Fermi energy shift (Ry) =     0.0000E+00    -2.8026E-45
     Pert. #  2: Fermi energy shift (Ry) =    -2.0195E-28    -2.1019E-45

      iter #   7 total cpu time :  9658.2 secs   av.it.:  18.6
      thresh= 4.560E-08 alpha_mix =  0.700 |ddv_scf|^2 =  3.440E-14

     Pert. #  1: Fermi energy shift (Ry) =     0.0000E+00    -2.8026E-45
     Pert. #  2: Fermi energy shift (Ry) =     5.3853E-28     4.4374E-45

      iter #   8 total cpu time :  9720.0 secs   av.it.:  18.6
      thresh= 1.855E-08 alpha_mix =  0.700 |ddv_scf|^2 =  6.260E-15

     Pert. #  1: Fermi energy shift (Ry) =     2.6926E-28    -2.8026E-45
     Pert. #  2: Fermi energy shift (Ry) =     6.7316E-28     4.4374E-45

      iter #   9 total cpu time :  9782.6 secs   av.it.:  18.7
      thresh= 7.912E-09 alpha_mix =  0.700 |ddv_scf|^2 =  2.336E-15

     Pert. #  1: Fermi energy shift (Ry) =     0.0000E+00    -2.8026E-45
     Pert. #  2: Fermi energy shift (Ry) =    -5.3853E-28     4.4374E-45

      iter #  10 total cpu time :  9842.5 secs   av.it.:  17.9
      thresh= 4.833E-09 alpha_mix =  0.700 |ddv_scf|^2 =  5.892E-17

     End of self-consistent calculation

     Convergence has been achieved 


     Representation #  16 modes #  20  21

     Self-consistent Calculation

     Pert. #  1: Fermi energy shift (Ry) =    -1.9411E-22    -2.9894E-44
     Pert. #  2: Fermi energy shift (Ry) =     1.1470E-22    -5.6052E-45

      iter #   1 total cpu time :  9891.3 secs   av.it.:   8.0
      thresh= 1.000E-02 alpha_mix =  0.700 |ddv_scf|^2 =  1.564E-08

     Pert. #  1: Fermi energy shift (Ry) =    -1.0340E-24     2.9894E-44
     Pert. #  2: Fermi energy shift (Ry) =     1.7233E-25     5.6052E-45

      iter #   2 total cpu time :  9958.3 secs   av.it.:  19.5
      thresh= 1.251E-05 alpha_mix =  0.700 |ddv_scf|^2 =  8.143E-08

     Pert. #  1: Fermi energy shift (Ry) =    -1.3786E-25    -1.4947E-44
     Pert. #  2: Fermi energy shift (Ry) =     1.0684E-24    -1.1210E-44

      iter #   3 total cpu time : 10019.4 secs   av.it.:  17.2
      thresh= 2.854E-05 alpha_mix =  0.700 |ddv_scf|^2 =  2.869E-08

     Pert. #  1: Fermi energy shift (Ry) =    -4.1359E-25     4.4842E-44
     Pert. #  2: Fermi energy shift (Ry) =     6.8932E-26     9.9025E-44

      iter #   4 total cpu time : 10081.6 secs   av.it.:  16.9
      thresh= 1.694E-05 alpha_mix =  0.700 |ddv_scf|^2 =  4.460E-11

     Pert. #  1: Fermi energy shift (Ry) =    -1.9387E-26     1.8684E-45
     Pert. #  2: Fermi energy shift (Ry) =    -9.6935E-27    -1.4947E-44

      iter #   5 total cpu time : 10148.1 secs   av.it.:  18.9
      thresh= 6.678E-07 alpha_mix =  0.700 |ddv_scf|^2 =  6.921E-12

     Pert. #  1: Fermi energy shift (Ry) =     3.2312E-27     1.8684E-45
     Pert. #  2: Fermi energy shift (Ry) =     1.0232E-26    -1.4947E-44

      iter #   6 total cpu time : 10210.5 secs   av.it.:  18.6
      thresh= 2.631E-07 alpha_mix =  0.700 |ddv_scf|^2 =  1.584E-13

     Pert. #  1: Fermi energy shift (Ry) =    -2.4234E-27     1.8684E-45
     Pert. #  2: Fermi energy shift (Ry) =     1.3463E-27    -1.4947E-44

      iter #   7 total cpu time : 10276.0 secs   av.it.:  19.4
      thresh= 3.980E-08 alpha_mix =  0.700 |ddv_scf|^2 =  1.221E-14

     Pert. #  1: Fermi energy shift (Ry) =    -8.0779E-28     1.8684E-45
     Pert. #  2: Fermi energy shift (Ry) =     2.6926E-28    -1.4947E-44

      iter #   8 total cpu time : 10341.4 secs   av.it.:  19.0
      thresh= 1.105E-08 alpha_mix =  0.700 |ddv_scf|^2 =  2.041E-15

     Pert. #  1: Fermi energy shift (Ry) =     2.0195E-27     1.8684E-45
     Pert. #  2: Fermi energy shift (Ry) =     2.3224E-27    -1.4947E-44

      iter #   9 total cpu time : 10408.2 secs   av.it.:  19.8
      thresh= 4.518E-09 alpha_mix =  0.700 |ddv_scf|^2 =  5.057E-15

     Pert. #  1: Fermi energy shift (Ry) =     1.3463E-28     1.8684E-45
     Pert. #  2: Fermi energy shift (Ry) =     2.6926E-28    -1.4947E-44

      iter #  10 total cpu time : 10471.0 secs   av.it.:  17.9
      thresh= 7.111E-09 alpha_mix =  0.700 |ddv_scf|^2 =  5.320E-15

     Pert. #  1: Fermi energy shift (Ry) =     4.7121E-28     1.8684E-45
     Pert. #  2: Fermi energy shift (Ry) =     6.2267E-28    -1.4947E-44

      iter #  11 total cpu time : 10532.2 secs   av.it.:  17.0
      thresh= 7.294E-09 alpha_mix =  0.700 |ddv_scf|^2 =  5.551E-18

     End of self-consistent calculation

     Convergence has been achieved 


     Representation #  17 modes #  22  23

     Self-consistent Calculation

     Pert. #  1: Fermi energy shift (Ry) =    -1.9411E-22     3.8302E-44
     Pert. #  2: Fermi energy shift (Ry) =    -4.4116E-23     4.5659E-44

      iter #   1 total cpu time : 10582.0 secs   av.it.:   7.0
      thresh= 1.000E-02 alpha_mix =  0.700 |ddv_scf|^2 =  1.776E-08

     Pert. #  1: Fermi energy shift (Ry) =    -4.7821E-25     6.9131E-44
     Pert. #  2: Fermi energy shift (Ry) =     1.7018E-25     1.0837E-43

      iter #   2 total cpu time : 10646.6 secs   av.it.:  19.5
      thresh= 1.333E-05 alpha_mix =  0.700 |ddv_scf|^2 =  2.486E-07

     Pert. #  1: Fermi energy shift (Ry) =     1.1718E-24     2.9894E-44
     Pert. #  2: Fermi energy shift (Ry) =     1.5165E-24     0.0000E+00

      iter #   3 total cpu time : 10705.1 secs   av.it.:  16.8
      thresh= 4.986E-05 alpha_mix =  0.700 |ddv_scf|^2 =  7.208E-09

     Pert. #  1: Fermi energy shift (Ry) =     1.7233E-25     7.4736E-45
     Pert. #  2: Fermi energy shift (Ry) =    -2.5849E-25    -1.4947E-44

      iter #   4 total cpu time : 10764.8 secs   av.it.:  16.9
      thresh= 8.490E-06 alpha_mix =  0.700 |ddv_scf|^2 =  1.287E-11

     Pert. #  1: Fermi energy shift (Ry) =     4.3082E-27     8.4078E-45
     Pert. #  2: Fermi energy shift (Ry) =     3.2312E-27     2.8960E-44

      iter #   5 total cpu time : 10829.0 secs   av.it.:  18.9
      thresh= 3.588E-07 alpha_mix =  0.700 |ddv_scf|^2 =  8.256E-13

     Pert. #  1: Fermi energy shift (Ry) =    -2.6926E-27     0.0000E+00
     Pert. #  2: Fermi energy shift (Ry) =    -7.8087E-27     1.3079E-44

      iter #   6 total cpu time : 10892.1 secs   av.it.:  18.9
      thresh= 9.087E-08 alpha_mix =  0.700 |ddv_scf|^2 =  2.620E-13

     Pert. #  1: Fermi energy shift (Ry) =     9.4243E-28    -7.4736E-45
     Pert. #  2: Fermi energy shift (Ry) =     1.6156E-27    -6.5394E-45

      iter #   7 total cpu time : 10954.1 secs   av.it.:  18.8
      thresh= 5.119E-08 alpha_mix =  0.700 |ddv_scf|^2 =  1.271E-14

     Pert. #  1: Fermi energy shift (Ry) =     1.6829E-29     1.3079E-44
     Pert. #  2: Fermi energy shift (Ry) =    -8.4145E-30     0.0000E+00

      iter #   8 total cpu time : 11019.2 secs   av.it.:  18.2
      thresh= 1.127E-08 alpha_mix =  0.700 |ddv_scf|^2 =  3.911E-16

     Pert. #  1: Fermi energy shift (Ry) =    -1.1780E-28     1.3079E-44
     Pert. #  2: Fermi energy shift (Ry) =    -5.8902E-29     0.0000E+00

      iter #   9 total cpu time : 11083.0 secs   av.it.:  18.9
      thresh= 1.978E-09 alpha_mix =  0.700 |ddv_scf|^2 =  4.818E-16

     Pert. #  1: Fermi energy shift (Ry) =    -1.6829E-29     1.1210E-44
     Pert. #  2: Fermi energy shift (Ry) =     2.5244E-29    -3.7368E-45

      iter #  10 total cpu time : 11141.7 secs   av.it.:  17.8
      thresh= 2.195E-09 alpha_mix =  0.700 |ddv_scf|^2 =  6.139E-17

     End of self-consistent calculation

     Convergence has been achieved 


     Representation #  18 modes #  24  25

     Self-consistent Calculation

     Pert. #  1: Fermi energy shift (Ry) =    -3.5293E-23     5.6052E-45
     Pert. #  2: Fermi energy shift (Ry) =    -3.5293E-23    -9.3420E-46

      iter #   1 total cpu time : 11189.2 secs   av.it.:   7.0
      thresh= 1.000E-02 alpha_mix =  0.700 |ddv_scf|^2 =  1.562E-08

     Pert. #  1: Fermi energy shift (Ry) =    -3.4466E-26     0.0000E+00
     Pert. #  2: Fermi energy shift (Ry) =     2.7573E-25     4.1105E-44

      iter #   2 total cpu time : 11254.6 secs   av.it.:  19.4
      thresh= 1.250E-05 alpha_mix =  0.700 |ddv_scf|^2 =  2.069E-07

     Pert. #  1: Fermi energy shift (Ry) =    -2.7573E-25    -2.9894E-44
     Pert. #  2: Fermi energy shift (Ry) =     9.6504E-25    -6.7262E-44

      iter #   3 total cpu time : 11313.1 secs   av.it.:  16.9
      thresh= 4.549E-05 alpha_mix =  0.700 |ddv_scf|^2 =  7.090E-09

     Pert. #  1: Fermi energy shift (Ry) =    -1.7233E-26     0.0000E+00
     Pert. #  2: Fermi energy shift (Ry) =     7.7548E-26    -2.9894E-44

      iter #   4 total cpu time : 11373.5 secs   av.it.:  17.0
      thresh= 8.420E-06 alpha_mix =  0.700 |ddv_scf|^2 =  8.909E-11

     Pert. #  1: Fermi energy shift (Ry) =     4.3082E-27     4.6710E-46
     Pert. #  2: Fermi energy shift (Ry) =    -1.0771E-26     4.6710E-46

      iter #   5 total cpu time : 11437.5 secs   av.it.:  18.9
      thresh= 9.439E-07 alpha_mix =  0.700 |ddv_scf|^2 =  7.337E-12

     Pert. #  1: Fermi energy shift (Ry) =     1.0771E-27     1.8684E-45
     Pert. #  2: Fermi energy shift (Ry) =     2.9619E-27    -8.4078E-45

      iter #   6 total cpu time : 11503.1 secs   av.it.:  18.5
      thresh= 2.709E-07 alpha_mix =  0.700 |ddv_scf|^2 =  5.487E-13

     Pert. #  1: Fermi energy shift (Ry) =     0.0000E+00     1.8684E-45
     Pert. #  2: Fermi energy shift (Ry) =     2.6926E-27    -1.5881E-44

      iter #   7 total cpu time : 11566.3 secs   av.it.:  18.0
      thresh= 7.408E-08 alpha_mix =  0.700 |ddv_scf|^2 =  1.867E-14

     Pert. #  1: Fermi energy shift (Ry) =     0.0000E+00     3.7368E-45
     Pert. #  2: Fermi energy shift (Ry) =    -8.0779E-28    -1.3079E-44

      iter #   8 total cpu time : 11631.1 secs   av.it.:  18.9
      thresh= 1.366E-08 alpha_mix =  0.700 |ddv_scf|^2 =  4.986E-15

     Pert. #  1: Fermi energy shift (Ry) =    -1.5356E-28     5.6052E-45
     Pert. #  2: Fermi energy shift (Ry) =     4.6280E-28    -1.0276E-44

      iter #   9 total cpu time : 11695.3 secs   av.it.:  18.9
      thresh= 7.061E-09 alpha_mix =  0.700 |ddv_scf|^2 =  1.085E-15

     Pert. #  1: Fermi energy shift (Ry) =     1.0097E-28     5.6052E-45
     Pert. #  2: Fermi energy shift (Ry) =     6.7316E-29    -9.3420E-45

      iter #  10 total cpu time : 11757.4 secs   av.it.:  18.8
      thresh= 3.293E-09 alpha_mix =  0.700 |ddv_scf|^2 =  5.791E-17

     End of self-consistent calculation

     Convergence has been achieved 


     Representation #  19 modes #  26  27

     Self-consistent Calculation

     Pert. #  1: Fermi energy shift (Ry) =     1.7647E-23     7.4736E-45
     Pert. #  2: Fermi energy shift (Ry) =    -5.7351E-23     2.2421E-44

      iter #   1 total cpu time : 11805.7 secs   av.it.:   7.0
      thresh= 1.000E-02 alpha_mix =  0.700 |ddv_scf|^2 =  1.552E-08

     Pert. #  1: Fermi energy shift (Ry) =     3.4466E-25    -2.9894E-44
     Pert. #  2: Fermi energy shift (Ry) =     5.5145E-25    -2.9894E-44

      iter #   2 total cpu time : 11872.8 secs   av.it.:  19.8
      thresh= 1.246E-05 alpha_mix =  0.700 |ddv_scf|^2 =  2.445E-07

     Pert. #  1: Fermi energy shift (Ry) =    -1.5165E-24    -5.9789E-44
     Pert. #  2: Fermi energy shift (Ry) =    -2.7573E-25     2.9894E-44

      iter #   3 total cpu time : 11934.2 secs   av.it.:  16.7
      thresh= 4.945E-05 alpha_mix =  0.700 |ddv_scf|^2 =  3.633E-09

     Pert. #  1: Fermi energy shift (Ry) =     8.6165E-27    -1.1958E-43
     Pert. #  2: Fermi energy shift (Ry) =    -5.1699E-26    -2.2421E-44

      iter #   4 total cpu time : 11998.7 secs   av.it.:  17.1
      thresh= 6.028E-06 alpha_mix =  0.700 |ddv_scf|^2 =  3.249E-11

     Pert. #  1: Fermi energy shift (Ry) =     1.0771E-26     7.4736E-45
     Pert. #  2: Fermi energy shift (Ry) =     4.3082E-27     5.2315E-44

      iter #   5 total cpu time : 12065.0 secs   av.it.:  18.9
      thresh= 5.700E-07 alpha_mix =  0.700 |ddv_scf|^2 =  5.468E-12

     Pert. #  1: Fermi energy shift (Ry) =    -1.3463E-26     7.4736E-45
     Pert. #  2: Fermi energy shift (Ry) =    -5.1160E-27     5.2315E-44

      iter #   6 total cpu time : 12127.6 secs   av.it.:  18.8
      thresh= 2.338E-07 alpha_mix =  0.700 |ddv_scf|^2 =  1.888E-13

     Pert. #  1: Fermi energy shift (Ry) =    -5.3853E-28     7.4736E-45
     Pert. #  2: Fermi energy shift (Ry) =    -2.6926E-28     5.2315E-44

      iter #   7 total cpu time : 12190.7 secs   av.it.:  18.8
      thresh= 4.345E-08 alpha_mix =  0.700 |ddv_scf|^2 =  2.148E-14

     Pert. #  1: Fermi energy shift (Ry) =     1.4810E-27     7.4736E-45
     Pert. #  2: Fermi energy shift (Ry) =    -4.0390E-28     5.2315E-44

      iter #   8 total cpu time : 12254.6 secs   av.it.:  18.9
      thresh= 1.466E-08 alpha_mix =  0.700 |ddv_scf|^2 =  4.183E-15

     Pert. #  1: Fermi energy shift (Ry) =     5.3853E-28     7.4736E-45
     Pert. #  2: Fermi energy shift (Ry) =     0.0000E+00     5.2315E-44

      iter #   9 total cpu time : 12318.3 secs   av.it.:  18.9
      thresh= 6.468E-09 alpha_mix =  0.700 |ddv_scf|^2 =  2.138E-15

     Pert. #  1: Fermi energy shift (Ry) =     2.6926E-28     7.4736E-45
     Pert. #  2: Fermi energy shift (Ry) =     1.3463E-28     5.2315E-44

      iter #  10 total cpu time : 12379.4 secs   av.it.:  17.9
      thresh= 4.624E-09 alpha_mix =  0.700 |ddv_scf|^2 =  1.561E-16

     Pert. #  1: Fermi energy shift (Ry) =     7.4048E-28     7.4736E-45
     Pert. #  2: Fermi energy shift (Ry) =    -6.7316E-29     5.2315E-44

      iter #  11 total cpu time : 12443.3 secs   av.it.:  18.9
      thresh= 1.249E-09 alpha_mix =  0.700 |ddv_scf|^2 =  7.686E-17

     End of self-consistent calculation

     Convergence has been achieved 


     Representation #  20 modes #  28  29

     Self-consistent Calculation

     Pert. #  1: Fermi energy shift (Ry) =     8.8233E-24    -7.4736E-45
     Pert. #  2: Fermi energy shift (Ry) =     8.8233E-24     1.8684E-44

      iter #   1 total cpu time : 12491.8 secs   av.it.:   7.3
      thresh= 1.000E-02 alpha_mix =  0.700 |ddv_scf|^2 =  1.157E-08

     Pert. #  1: Fermi energy shift (Ry) =    -1.3786E-25     5.9789E-44
     Pert. #  2: Fermi energy shift (Ry) =    -2.7573E-25     0.0000E+00

      iter #   2 total cpu time : 12554.6 secs   av.it.:  19.9
      thresh= 1.076E-05 alpha_mix =  0.700 |ddv_scf|^2 =  1.528E-07

     Pert. #  1: Fermi energy shift (Ry) =     0.0000E+00    -2.9894E-44
     Pert. #  2: Fermi energy shift (Ry) =    -5.5145E-25    -7.4736E-44

      iter #   3 total cpu time : 12612.4 secs   av.it.:  16.8
      thresh= 3.909E-05 alpha_mix =  0.700 |ddv_scf|^2 =  4.609E-09

     Pert. #  1: Fermi energy shift (Ry) =     6.8932E-26     7.4736E-45
     Pert. #  2: Fermi energy shift (Ry) =     4.4806E-25     7.4736E-45

      iter #   4 total cpu time : 12673.8 secs   av.it.:  17.9
      thresh= 6.789E-06 alpha_mix =  0.700 |ddv_scf|^2 =  1.170E-10

     Pert. #  1: Fermi energy shift (Ry) =     0.0000E+00     1.4947E-44
     Pert. #  2: Fermi energy shift (Ry) =     9.1550E-27    -5.6052E-45

      iter #   5 total cpu time : 12738.7 secs   av.it.:  18.7
      thresh= 1.082E-06 alpha_mix =  0.700 |ddv_scf|^2 =  8.902E-13

     Pert. #  1: Fermi energy shift (Ry) =     1.3463E-28     1.4947E-44
     Pert. #  2: Fermi energy shift (Ry) =    -2.0195E-28    -2.6158E-44

      iter #   6 total cpu time : 12806.7 secs   av.it.:  19.4
      thresh= 9.435E-08 alpha_mix =  0.700 |ddv_scf|^2 =  7.144E-14

     Pert. #  1: Fermi energy shift (Ry) =    -1.3463E-28     1.4947E-44
     Pert. #  2: Fermi energy shift (Ry) =     8.7511E-28    -2.6158E-44

      iter #   7 total cpu time : 12874.8 secs   av.it.:  19.6
      thresh= 2.673E-08 alpha_mix =  0.700 |ddv_scf|^2 =  1.873E-14

     Pert. #  1: Fermi energy shift (Ry) =    -2.6926E-28     1.4947E-44
     Pert. #  2: Fermi energy shift (Ry) =     2.6926E-28    -2.6158E-44

      iter #   8 total cpu time : 12941.9 secs   av.it.:  18.9
      thresh= 1.368E-08 alpha_mix =  0.700 |ddv_scf|^2 =  5.252E-15

     Pert. #  1: Fermi energy shift (Ry) =    -3.3658E-29     1.4947E-44
     Pert. #  2: Fermi energy shift (Ry) =     3.0292E-28    -2.6158E-44

      iter #   9 total cpu time : 13008.7 secs   av.it.:  18.9
      thresh= 7.247E-09 alpha_mix =  0.700 |ddv_scf|^2 =  3.272E-15

     Pert. #  1: Fermi energy shift (Ry) =     6.7316E-29     1.4947E-44
     Pert. #  2: Fermi energy shift (Ry) =     0.0000E+00    -2.6158E-44

      iter #  10 total cpu time : 13072.3 secs   av.it.:  17.7
      thresh= 5.720E-09 alpha_mix =  0.700 |ddv_scf|^2 =  6.660E-16

     Pert. #  1: Fermi energy shift (Ry) =    -2.0195E-28     1.4947E-44
     Pert. #  2: Fermi energy shift (Ry) =     2.5244E-28    -2.6158E-44

      iter #  11 total cpu time : 13134.5 secs   av.it.:  17.9
      thresh= 2.581E-09 alpha_mix =  0.700 |ddv_scf|^2 =  2.560E-17

     End of self-consistent calculation

     Convergence has been achieved 


     Representation #  21 modes #  30  31

     Self-consistent Calculation

     Pert. #  1: Fermi energy shift (Ry) =     1.7647E-23    -1.1210E-44
     Pert. #  2: Fermi energy shift (Ry) =    -1.6764E-22     1.8684E-44

      iter #   1 total cpu time : 13183.6 secs   av.it.:   7.0
      thresh= 1.000E-02 alpha_mix =  0.700 |ddv_scf|^2 =  1.646E-08

     Pert. #  1: Fermi energy shift (Ry) =     6.8932E-25    -3.7368E-45
     Pert. #  2: Fermi energy shift (Ry) =    -1.3786E-25     4.6710E-45

      iter #   2 total cpu time : 13248.8 secs   av.it.:  19.6
      thresh= 1.283E-05 alpha_mix =  0.700 |ddv_scf|^2 =  2.505E-07

     Pert. #  1: Fermi energy shift (Ry) =     2.2058E-24     2.6158E-44
     Pert. #  2: Fermi energy shift (Ry) =     1.6544E-24    -1.1210E-44

      iter #   3 total cpu time : 13309.2 secs   av.it.:  16.5
      thresh= 5.005E-05 alpha_mix =  0.700 |ddv_scf|^2 =  4.505E-09

     Pert. #  1: Fermi energy shift (Ry) =    -2.0680E-25    -7.4736E-45
     Pert. #  2: Fermi energy shift (Ry) =    -4.4806E-25     9.3420E-45

      iter #   4 total cpu time : 13372.9 secs   av.it.:  16.9
      thresh= 6.712E-06 alpha_mix =  0.700 |ddv_scf|^2 =  5.413E-11

     Pert. #  1: Fermi energy shift (Ry) =     5.3853E-27    -7.4736E-45
     Pert. #  2: Fermi energy shift (Ry) =    -5.3853E-28     9.3420E-45

      iter #   5 total cpu time : 13439.7 secs   av.it.:  18.9
      thresh= 7.357E-07 alpha_mix =  0.700 |ddv_scf|^2 =  5.505E-12

     Pert. #  1: Fermi energy shift (Ry) =     1.1107E-27     0.0000E+00
     Pert. #  2: Fermi energy shift (Ry) =     1.8512E-27     6.5394E-45

      iter #   6 total cpu time : 13503.9 secs   av.it.:  18.3
      thresh= 2.346E-07 alpha_mix =  0.700 |ddv_scf|^2 =  3.013E-13

     Pert. #  1: Fermi energy shift (Ry) =    -1.6156E-27     0.0000E+00
     Pert. #  2: Fermi energy shift (Ry) =    -1.8849E-27     6.5394E-45

      iter #   7 total cpu time : 13568.5 secs   av.it.:  18.5
      thresh= 5.489E-08 alpha_mix =  0.700 |ddv_scf|^2 =  2.869E-14

     Pert. #  1: Fermi energy shift (Ry) =     2.5580E-27     0.0000E+00
     Pert. #  2: Fermi energy shift (Ry) =     8.0779E-28     6.5394E-45

      iter #   8 total cpu time : 13631.0 secs   av.it.:  18.9
      thresh= 1.694E-08 alpha_mix =  0.700 |ddv_scf|^2 =  4.966E-15

     Pert. #  1: Fermi energy shift (Ry) =     1.3463E-27     0.0000E+00
     Pert. #  2: Fermi energy shift (Ry) =     2.6926E-28     6.5394E-45

      iter #   9 total cpu time : 13695.8 secs   av.it.:  18.8
      thresh= 7.047E-09 alpha_mix =  0.700 |ddv_scf|^2 =  1.553E-15

     Pert. #  1: Fermi energy shift (Ry) =     1.3463E-28     0.0000E+00
     Pert. #  2: Fermi energy shift (Ry) =     5.3853E-28     6.5394E-45

      iter #  10 total cpu time : 13756.7 secs   av.it.:  18.4
      thresh= 3.941E-09 alpha_mix =  0.700 |ddv_scf|^2 =  5.356E-17

     End of self-consistent calculation

     Convergence has been achieved 


     Representation #  22 modes #  32  33

     Self-consistent Calculation

     Pert. #  1: Fermi energy shift (Ry) =    -2.8234E-22    -1.4013E-43
     Pert. #  2: Fermi energy shift (Ry) =    -2.9999E-22    -7.2868E-44

      iter #   1 total cpu time : 13808.2 secs   av.it.:   7.3
      thresh= 1.000E-02 alpha_mix =  0.700 |ddv_scf|^2 =  3.299E-08

     Pert. #  1: Fermi energy shift (Ry) =    -1.6802E-24     7.4736E-45
     Pert. #  2: Fermi energy shift (Ry) =     2.5849E-26     3.7368E-44

      iter #   2 total cpu time : 13874.3 secs   av.it.:  19.6
      thresh= 1.816E-05 alpha_mix =  0.700 |ddv_scf|^2 =  5.312E-07

     Pert. #  1: Fermi energy shift (Ry) =     1.1029E-24    -5.6799E-43
     Pert. #  2: Fermi energy shift (Ry) =     8.2718E-25    -9.2673E-43

      iter #   3 total cpu time : 13933.6 secs   av.it.:  16.8
      thresh= 7.288E-05 alpha_mix =  0.700 |ddv_scf|^2 =  8.980E-09

     Pert. #  1: Fermi energy shift (Ry) =    -1.3097E-24     1.8684E-45
     Pert. #  2: Fermi energy shift (Ry) =    -9.3058E-25     9.3420E-45

      iter #   4 total cpu time : 13992.7 secs   av.it.:  16.9
      thresh= 9.476E-06 alpha_mix =  0.700 |ddv_scf|^2 =  3.205E-11

[...]
      thresh= 7.718E-06 alpha_mix =  0.700 |ddv_scf|^2 =  5.545E-10

      iter #   6 total cpu time :141922.5 secs   av.it.:  15.7
      thresh= 2.355E-06 alpha_mix =  0.700 |ddv_scf|^2 =  1.957E-12

      iter #   7 total cpu time :141986.1 secs   av.it.:  17.8
      thresh= 1.399E-07 alpha_mix =  0.700 |ddv_scf|^2 =  2.111E-12

      iter #   8 total cpu time :142040.7 secs   av.it.:  16.5
      thresh= 1.453E-07 alpha_mix =  0.700 |ddv_scf|^2 =  1.547E-13

      iter #   9 total cpu time :142096.8 secs   av.it.:  16.8
      thresh= 3.933E-08 alpha_mix =  0.700 |ddv_scf|^2 =  9.375E-15

      iter #  10 total cpu time :142153.9 secs   av.it.:  17.2
      thresh= 9.683E-09 alpha_mix =  0.700 |ddv_scf|^2 =  6.148E-15

      iter #  11 total cpu time :142208.3 secs   av.it.:  16.1
      thresh= 7.841E-09 alpha_mix =  0.700 |ddv_scf|^2 =  4.591E-16

      iter #  12 total cpu time :142263.6 secs   av.it.:  16.7
      thresh= 2.143E-09 alpha_mix =  0.700 |ddv_scf|^2 =  1.193E-16

      iter #  13 total cpu time :142318.5 secs   av.it.:  16.8
      thresh= 1.092E-09 alpha_mix =  0.700 |ddv_scf|^2 =  5.760E-18

     End of self-consistent calculation

     Convergence has been achieved 


     Representation #  65 mode #  65

     Self-consistent Calculation

      iter #   1 total cpu time :142357.9 secs   av.it.:   7.0
      thresh= 1.000E-02 alpha_mix =  0.700 |ddv_scf|^2 =  6.869E-08

      iter #   2 total cpu time :142415.7 secs   av.it.:  17.5
      thresh= 2.621E-05 alpha_mix =  0.700 |ddv_scf|^2 =  1.231E-07

      iter #   3 total cpu time :142471.3 secs   av.it.:  16.1
      thresh= 3.509E-05 alpha_mix =  0.700 |ddv_scf|^2 =  3.117E-07

      iter #   4 total cpu time :142520.1 secs   av.it.:  13.8
      thresh= 5.583E-05 alpha_mix =  0.700 |ddv_scf|^2 =  2.038E-09

      iter #   5 total cpu time :142577.5 secs   av.it.:  17.0
      thresh= 4.514E-06 alpha_mix =  0.700 |ddv_scf|^2 =  1.385E-10

      iter #   6 total cpu time :142632.7 secs   av.it.:  16.9
      thresh= 1.177E-06 alpha_mix =  0.700 |ddv_scf|^2 =  5.701E-11

      iter #   7 total cpu time :142685.7 secs   av.it.:  15.8
      thresh= 7.550E-07 alpha_mix =  0.700 |ddv_scf|^2 =  5.257E-12

      iter #   8 total cpu time :142740.1 secs   av.it.:  16.1
      thresh= 2.293E-07 alpha_mix =  0.700 |ddv_scf|^2 =  1.368E-13

      iter #   9 total cpu time :142799.9 secs   av.it.:  17.3
      thresh= 3.699E-08 alpha_mix =  0.700 |ddv_scf|^2 =  4.583E-14

      iter #  10 total cpu time :142860.9 secs   av.it.:  16.5
      thresh= 2.141E-08 alpha_mix =  0.700 |ddv_scf|^2 =  4.561E-15

      iter #  11 total cpu time :142920.4 secs   av.it.:  16.8
      thresh= 6.754E-09 alpha_mix =  0.700 |ddv_scf|^2 =  1.374E-15

      iter #  12 total cpu time :142976.5 secs   av.it.:  16.5
      thresh= 3.707E-09 alpha_mix =  0.700 |ddv_scf|^2 =  2.060E-16

      iter #  13 total cpu time :143032.5 secs   av.it.:  16.9
      thresh= 1.435E-09 alpha_mix =  0.700 |ddv_scf|^2 =  4.614E-17

     End of self-consistent calculation

     Convergence has been achieved 


     Representation #  66 mode #  66

     Self-consistent Calculation

      iter #   1 total cpu time :143071.0 secs   av.it.:   7.3
      thresh= 1.000E-02 alpha_mix =  0.700 |ddv_scf|^2 =  2.418E-07

      iter #   2 total cpu time :143127.9 secs   av.it.:  17.4
      thresh= 4.917E-05 alpha_mix =  0.700 |ddv_scf|^2 =  3.066E-06

      iter #   3 total cpu time :143179.8 secs   av.it.:  14.5
      thresh= 1.751E-04 alpha_mix =  0.700 |ddv_scf|^2 =  1.327E-06

      iter #   4 total cpu time :143230.5 secs   av.it.:  14.2
      thresh= 1.152E-04 alpha_mix =  0.700 |ddv_scf|^2 =  2.055E-09

      iter #   5 total cpu time :143289.1 secs   av.it.:  17.7
      thresh= 4.534E-06 alpha_mix =  0.700 |ddv_scf|^2 =  1.516E-09

      iter #   6 total cpu time :143341.7 secs   av.it.:  15.8
      thresh= 3.893E-06 alpha_mix =  0.700 |ddv_scf|^2 =  1.139E-11

      iter #   7 total cpu time :143398.7 secs   av.it.:  16.9
      thresh= 3.376E-07 alpha_mix =  0.700 |ddv_scf|^2 =  2.108E-12

      iter #   8 total cpu time :143455.4 secs   av.it.:  17.5
      thresh= 1.452E-07 alpha_mix =  0.700 |ddv_scf|^2 =  7.376E-13

      iter #   9 total cpu time :143512.0 secs   av.it.:  17.1
      thresh= 8.588E-08 alpha_mix =  0.700 |ddv_scf|^2 =  7.367E-14

      iter #  10 total cpu time :143564.1 secs   av.it.:  15.8
      thresh= 2.714E-08 alpha_mix =  0.700 |ddv_scf|^2 =  6.057E-15

      iter #  11 total cpu time :143619.4 secs   av.it.:  16.5
      thresh= 7.782E-09 alpha_mix =  0.700 |ddv_scf|^2 =  1.878E-15

      iter #  12 total cpu time :143676.6 secs   av.it.:  17.0
      thresh= 4.333E-09 alpha_mix =  0.700 |ddv_scf|^2 =  9.785E-16

      iter #  13 total cpu time :143728.9 secs   av.it.:  15.6
      thresh= 3.128E-09 alpha_mix =  0.700 |ddv_scf|^2 =  2.767E-17

     End of self-consistent calculation

     Convergence has been achieved 

     Number of q in the star =    3
     List of q in the star:
          1   0.288675135  -0.500000000  -0.202430016
          2   0.577350269   0.000000000   0.202430016
          3  -0.288675135  -0.500000000   0.202430016

     Diagonalizing the dynamical matrix

     q = (    0.288675135  -0.500000000  -0.202430016 ) 

 **************************************************************************
     freq (    1) =       1.797253 [THz] =      59.949908 [cm-1]
     freq (    2) =       1.863098 [THz] =      62.146265 [cm-1]
     freq (    3) =       1.883928 [THz] =      62.841089 [cm-1]
     freq (    4) =       2.063450 [THz] =      68.829288 [cm-1]
     freq (    5) =       2.293959 [THz] =      76.518247 [cm-1]
     freq (    6) =       2.429601 [THz] =      81.042756 [cm-1]
     freq (    7) =       2.717846 [THz] =      90.657583 [cm-1]
     freq (    8) =       2.887510 [THz] =      96.316982 [cm-1]
     freq (    9) =       3.602126 [THz] =     120.153991 [cm-1]
     freq (   10) =       3.676368 [THz] =     122.630425 [cm-1]
     freq (   11) =       3.778902 [THz] =     126.050601 [cm-1]
     freq (   12) =       3.974566 [THz] =     132.577239 [cm-1]
     freq (   13) =       4.615405 [THz] =     153.953349 [cm-1]
     freq (   14) =       4.822717 [THz] =     160.868512 [cm-1]
     freq (   15) =       5.082392 [THz] =     169.530343 [cm-1]
     freq (   16) =       5.235713 [THz] =     174.644592 [cm-1]
     freq (   17) =       5.460775 [THz] =     182.151852 [cm-1]
     freq (   18) =       5.532408 [THz] =     184.541281 [cm-1]
     freq (   19) =       6.098509 [THz] =     203.424357 [cm-1]
     freq (   20) =       6.193981 [THz] =     206.608963 [cm-1]
     freq (   21) =       6.459625 [THz] =     215.469906 [cm-1]
     freq (   22) =       6.654014 [THz] =     221.954003 [cm-1]
     freq (   23) =       6.760946 [THz] =     225.520884 [cm-1]
     freq (   24) =       6.992868 [THz] =     233.256970 [cm-1]
     freq (   25) =       7.080665 [THz] =     236.185576 [cm-1]
     freq (   26) =       7.117058 [THz] =     237.399497 [cm-1]
     freq (   27) =       7.598077 [THz] =     253.444583 [cm-1]
     freq (   28) =       7.599699 [THz] =     253.498663 [cm-1]
     freq (   29) =       8.899213 [THz] =     296.845788 [cm-1]
     freq (   30) =       9.010324 [THz] =     300.552046 [cm-1]
     freq (   31) =       9.026023 [THz] =     301.075705 [cm-1]
     freq (   32) =       9.045020 [THz] =     301.709382 [cm-1]
     freq (   33) =       9.421835 [THz] =     314.278573 [cm-1]
     freq (   34) =       9.493454 [THz] =     316.667532 [cm-1]
     freq (   35) =       9.517519 [THz] =     317.470266 [cm-1]
     freq (   36) =       9.666725 [THz] =     322.447227 [cm-1]
     freq (   37) =       9.873683 [THz] =     329.350607 [cm-1]
     freq (   38) =      10.096929 [THz] =     336.797307 [cm-1]
     freq (   39) =      10.161118 [THz] =     338.938410 [cm-1]
     freq (   40) =      10.232223 [THz] =     341.310206 [cm-1]
     freq (   41) =      10.322571 [THz] =     344.323913 [cm-1]
     freq (   42) =      10.470127 [THz] =     349.245860 [cm-1]
     freq (   43) =      10.478997 [THz] =     349.541723 [cm-1]
     freq (   44) =      10.485801 [THz] =     349.768664 [cm-1]
     freq (   45) =      10.719708 [THz] =     357.570974 [cm-1]
     freq (   46) =      10.728193 [THz] =     357.853989 [cm-1]
     freq (   47) =      11.116420 [THz] =     370.803847 [cm-1]
     freq (   48) =      11.204245 [THz] =     373.733385 [cm-1]
     freq (   49) =      11.660815 [THz] =     388.962907 [cm-1]
     freq (   50) =      11.782015 [THz] =     393.005707 [cm-1]
     freq (   51) =      12.184797 [THz] =     406.441084 [cm-1]
     freq (   52) =      12.304119 [THz] =     410.421234 [cm-1]
     freq (   53) =      12.541234 [THz] =     418.330550 [cm-1]
     freq (   54) =      12.770028 [THz] =     425.962289 [cm-1]
     freq (   55) =      13.032287 [THz] =     434.710307 [cm-1]
     freq (   56) =      13.349217 [THz] =     445.281934 [cm-1]
     freq (   57) =      13.697055 [THz] =     456.884562 [cm-1]
     freq (   58) =      14.300107 [THz] =     477.000221 [cm-1]
     freq (   59) =      15.541243 [THz] =     518.400066 [cm-1]
     freq (   60) =      15.544639 [THz] =     518.513330 [cm-1]
     freq (   61) =      15.557799 [THz] =     518.952319 [cm-1]
     freq (   62) =      15.964831 [THz] =     532.529440 [cm-1]
     freq (   63) =      16.308643 [THz] =     543.997765 [cm-1]
     freq (   64) =      16.466521 [THz] =     549.264010 [cm-1]
     freq (   65) =      17.011021 [THz] =     567.426596 [cm-1]
     freq (   66) =      17.069196 [THz] =     569.367101 [cm-1]
 **************************************************************************

     Mode symmetry, C_2h (2/m)  point group:

     freq (   1-   1) =         59.9  [cm-1]   --> B_g                
     freq (   2-   2) =         62.1  [cm-1]   --> B_u                
     freq (   3-   3) =         62.8  [cm-1]   --> A_u                
     freq (   4-   4) =         68.8  [cm-1]   --> A_g                
     freq (   5-   5) =         76.5  [cm-1]   --> B_u                
     freq (   6-   6) =         81.0  [cm-1]   --> A_g                
     freq (   7-   7) =         90.7  [cm-1]   --> A_u                
     freq (   8-   8) =         96.3  [cm-1]   --> B_g                
     freq (   9-   9) =        120.2  [cm-1]   --> A_g                
     freq (  10-  10) =        122.6  [cm-1]   --> B_u                
     freq (  11-  11) =        126.1  [cm-1]   --> A_u                
     freq (  12-  12) =        132.6  [cm-1]   --> B_g                
     freq (  13-  13) =        154.0  [cm-1]   --> B_u                
     freq (  14-  14) =        160.9  [cm-1]   --> A_g                
     freq (  15-  15) =        169.5  [cm-1]   --> B_u                
     freq (  16-  16) =        174.6  [cm-1]   --> B_g                
     freq (  17-  17) =        182.2  [cm-1]   --> B_g                
     freq (  18-  18) =        184.5  [cm-1]   --> A_u                
     freq (  19-  19) =        203.4  [cm-1]   --> A_g                
     freq (  20-  20) =        206.6  [cm-1]   --> A_u                
     freq (  21-  21) =        215.5  [cm-1]   --> A_g                
     freq (  22-  22) =        222.0  [cm-1]   --> B_u                
     freq (  23-  23) =        225.5  [cm-1]   --> A_g                
     freq (  24-  24) =        233.3  [cm-1]   --> B_u                
     freq (  25-  25) =        236.2  [cm-1]   --> B_g                
     freq (  26-  26) =        237.4  [cm-1]   --> A_u                
     freq (  27-  27) =        253.4  [cm-1]   --> A_g                
     freq (  28-  28) =        253.5  [cm-1]   --> B_u                
     freq (  29-  29) =        296.8  [cm-1]   --> B_u                
     freq (  30-  30) =        300.6  [cm-1]   --> A_g                
     freq (  31-  31) =        301.1  [cm-1]   --> A_u                
     freq (  32-  32) =        301.7  [cm-1]   --> B_g                
     freq (  33-  33) =        314.3  [cm-1]   --> A_g                
     freq (  34-  34) =        316.7  [cm-1]   --> A_u                
     freq (  35-  35) =        317.5  [cm-1]   --> B_u                
     freq (  36-  36) =        322.4  [cm-1]   --> B_g                
     freq (  37-  37) =        329.4  [cm-1]   --> B_g                
     freq (  38-  38) =        336.8  [cm-1]   --> B_u                
     freq (  39-  39) =        338.9  [cm-1]   --> A_g                
     freq (  40-  40) =        341.3  [cm-1]   --> A_u                
     freq (  41-  41) =        344.3  [cm-1]   --> B_u                
     freq (  42-  42) =        349.2  [cm-1]   --> A_g                
     freq (  43-  43) =        349.5  [cm-1]   --> B_g                
     freq (  44-  44) =        349.8  [cm-1]   --> A_u                
     freq (  45-  45) =        357.6  [cm-1]   --> A_u                
     freq (  46-  46) =        357.9  [cm-1]   --> B_g                
     freq (  47-  47) =        370.8  [cm-1]   --> B_g                
     freq (  48-  48) =        373.7  [cm-1]   --> A_u                
     freq (  49-  49) =        389.0  [cm-1]   --> B_u                
     freq (  50-  50) =        393.0  [cm-1]   --> A_g                
     freq (  51-  51) =        406.4  [cm-1]   --> B_u                
     freq (  52-  52) =        410.4  [cm-1]   --> A_g                
     freq (  53-  53) =        418.3  [cm-1]   --> B_g                
     freq (  54-  54) =        426.0  [cm-1]   --> A_u                
     freq (  55-  55) =        434.7  [cm-1]   --> B_u                
     freq (  56-  56) =        445.3  [cm-1]   --> A_g                
     freq (  57-  57) =        456.9  [cm-1]   --> B_u                
     freq (  58-  58) =        477.0  [cm-1]   --> A_g                
     freq (  59-  59) =        518.4  [cm-1]   --> A_g                
     freq (  60-  60) =        518.5  [cm-1]   --> B_u                
     freq (  61-  61) =        519.0  [cm-1]   --> B_g                
     freq (  62-  62) =        532.5  [cm-1]   --> A_u                
     freq (  63-  63) =        544.0  [cm-1]   --> A_g                
     freq (  64-  64) =        549.3  [cm-1]   --> B_u                
     freq (  65-  65) =        567.4  [cm-1]   --> B_u                
     freq (  66-  66) =        569.4  [cm-1]   --> A_g                

     init_run     :      0.77s CPU      3.09s WALL (       3 calls)
     electrons    :   2075.10s CPU   2105.20s WALL (       3 calls)

     Called by init_run:
     wfcinit      :      0.00s CPU      1.86s WALL (       3 calls)
     potinit      :      0.39s CPU      0.75s WALL (       3 calls)
     hinit0       :      0.02s CPU      0.03s WALL (       3 calls)

     Called by electrons:
     c_bands      :   2075.09s CPU   2105.02s WALL (       3 calls)
     v_of_rho     :      0.44s CPU      0.50s WALL (       4 calls)

     Called by c_bands:
     init_us_2    :     11.67s CPU     16.28s WALL (   15108 calls)
     ccgdiagg     :   1935.50s CPU   1963.16s WALL (     176 calls)
     wfcrot       :     72.46s CPU     73.42s WALL (     176 calls)

     Called by *cgdiagg:
     h_psi        :  78021.86s CPU  79153.10s WALL (  675773 calls)

     Called by h_psi:
     h_psi:calbec :   2763.07s CPU   2800.52s WALL (  675773 calls)
     vloc_psi     :  73223.23s CPU  74290.30s WALL (  675773 calls)
     add_vuspsi   :   1760.47s CPU   1783.77s WALL (  675773 calls)
     hs_1psi      :   1695.66s CPU   1719.44s WALL (  215290 calls)
     s_1psi       :     89.66s CPU     90.97s WALL (  215290 calls)

     General routines
     calbec       :   3040.73s CPU   3082.59s WALL (  896136 calls)
     fft          :    209.90s CPU    219.16s WALL (   34965 calls)
     ffts         :    627.69s CPU    636.79s WALL (   28314 calls)
     fftw         :  80995.66s CPU  82119.98s WALL (48370772 calls)
     davcio       :     17.12s CPU   6953.24s WALL (   94555 calls)

     Parallel routines

     PHONON       :   1d13h 4m CPU   1d15h55m WALL

     INITIALIZATION: 
     phq_setup    :      1.07s CPU      1.37s WALL (       4 calls)
     phq_init     :     45.53s CPU     50.87s WALL (       4 calls)

     phq_init     :     45.53s CPU     50.87s WALL (       4 calls)
     init_vloc    :      0.01s CPU      0.01s WALL (       4 calls)
     init_us_1    :      0.00s CPU      0.00s WALL (       4 calls)
     init_us_2    :     11.67s CPU     16.28s WALL (   15108 calls)

     DYNAMICAL MATRIX:
     dynmat0      :     43.27s CPU     48.02s WALL (       4 calls)
     dynmat_us    :      6.57s CPU      6.66s WALL (       4 calls)
     d2ionq       :      0.82s CPU      0.82s WALL (       4 calls)
     phqscf       : 129018.00s CPU 139141.15s WALL (       4 calls)
     dynmatrix    :      5.73s CPU      5.88s WALL (       4 calls)

     phqscf       : 129018.00s CPU 139141.15s WALL (       4 calls)
     solve_linter : 128772.74s CPU 138592.09s WALL (     220 calls)
     sth_kernel   : 116359.15s CPU 122727.48s WALL (    2565 calls)
     h_prec       :   2754.93s CPU   2776.96s WALL (   12663 calls)
     apply_dpot_b :   7719.58s CPU   7811.85s WALL (   12915 calls)
     ortho        :    435.32s CPU    439.74s WALL (   14121 calls)
     cgsolve      :  80413.13s CPU  81577.78s WALL (   14121 calls)
     incdrhoscf   :  17043.08s CPU  17239.74s WALL (   14112 calls)
                                        0.00s GPU  (   14112 calls)
     dv_of_drho   :    386.41s CPU    407.74s WALL (    3051 calls)
     mix_pot      :   1826.57s CPU   3651.25s WALL (    2565 calls)
     ef_shift     :      6.50s CPU      8.00s WALL (     444 calls)
     ef_shift_wfc :      0.05s CPU     16.69s WALL (      44 calls)
     localdos     :    158.08s CPU    162.02s WALL (      44 calls)
     drhodv       :    227.40s CPU    253.36s WALL (     220 calls)
     psymdvscf    :   3922.58s CPU   4252.08s WALL (    2565 calls)
     com_dvloc    :    613.79s CPU    621.22s WALL (   15906 calls)
                                        0.00s GPU  (   15906 calls)
     addcore      :      2.99s CPU      3.45s WALL (    3012 calls)
                                        0.00s GPU  (    3012 calls)

     dvqpsi_us    :   1206.00s CPU   1219.59s WALL (    1386 calls)
                                        0.00s GPU  (    1386 calls)
     dvqpsi_us_on :     30.13s CPU     30.66s WALL (    1386 calls)

     add_vuspsi   :   1760.47s CPU   1783.77s WALL (  675773 calls)


      General routines
     calbec       :   3040.73s CPU   3082.59s WALL (  896136 calls)
     fft          :    209.90s CPU    219.16s WALL (   34965 calls)
     ffts         :    627.69s CPU    636.79s WALL (   28314 calls)
     fftw         :  80995.66s CPU  82119.98s WALL (48370772 calls)
     davcio       :     17.12s CPU   6953.24s WALL (   94555 calls)
     write_rec    :    156.70s CPU   1224.79s WALL (    2785 calls)

      Additional routines
     ch_psi       :  78981.59s CPU  80125.75s WALL (  460307 calls)
     last         :   2086.04s CPU   2113.03s WALL (  460307 calls)
     Hesh         :    260.15s CPU    264.48s WALL (  460307 calls)
     ch_psi_all_k :   1822.75s CPU   1846.30s WALL (  460307 calls)
                                        0.00s GPU  (  460307 calls)
     h_psi_bgrp   :  78023.77s CPU  79154.29s WALL (  675773 calls)
     h_psi        :  78021.86s CPU  79153.10s WALL (  675773 calls)
     h_psi:pot    :  77751.28s CPU  78877.57s WALL (  675773 calls)
     h_psi:calbec :   2763.07s CPU   2800.52s WALL (  675773 calls)
     s_psi_bgrp   :    257.66s CPU    261.97s WALL ( 1365315 calls)


     PHONON       :   1d13h 4m CPU   1d15h55m WALL


   This run was terminated on:   4: 4:32   1Jun2025            

=------------------------------------------------------------------------------=
   JOB DONE.
=------------------------------------------------------------------------------=
