
     Program Q2R v.7.4.1 starts on  1Jun2025 at  4: 4:44 

     This program is part of the open-source Quantum ESPRESSO suite
     for quantum simulation of materials; please cite
         "P. Giannozzi et al., J. Phys.:Condens. Matter 21 395502 (2009);
         "P. Giannozzi et al., J. Phys.:Condens. Matter 29 465901 (2017);
         "P. Giannozzi et al., J. Chem. Phys. 152 154105 (2020);
          URL http://www.quantum-espresso.org", 
     in publications or presentations arising from this work. More details at
     http://www.quantum-espresso.org/quote

     Parallel version (MPI), running on     1 processors

     MPI processes distributed on     1 nodes
     365665 MiB available memory on the printing compute node when the environment starts


  reading grid info from file dyn0    

  reading force constants from file dyn1
 macroscopic fields = T
   4.49962   0.00000   0.00000
   0.00000   4.49962   0.00000
   0.00000   0.00000   2.38924
  na=            1
   3.84229  -0.00000  -0.85053
  -0.00000   2.71050   0.00000
  -0.34523  -0.00000   2.19741
  na=            2
   2.99345  -0.49008   0.42527
  -0.49008   3.55934  -0.73658
   0.17262  -0.29898   2.19741
  na=            3
   2.99345   0.49008   0.42527
   0.49008   3.55934   0.73658
   0.17262   0.29898   2.19741
  na=            4
   3.84229   0.00000  -0.85053
   0.00000   2.71050   0.00000
  -0.34523   0.00000   2.19741
  na=            5
   2.99345  -0.49008   0.42527
  -0.49008   3.55934  -0.73658
   0.17262  -0.29898   2.19741
  na=            6
   2.99345   0.49008   0.42527
   0.49008   3.55934   0.73658
   0.17262   0.29898   2.19741
  na=            7
  -0.23320   0.00000  -0.00000
   0.00000  -0.23320   0.00000
  -0.00000   0.00000  -0.95883
  na=            8
  -0.49131   0.00000   0.05784
   0.00000  -2.96474  -0.00000
   0.09163  -0.00000  -0.68413
  na=            9
  -2.34638  -1.07103  -0.02892
  -1.07103  -1.10967   0.05009
  -0.04581   0.07935  -0.68413
  na=           10
  -2.34638   1.07103  -0.02892
   1.07103  -1.10967  -0.05009
  -0.04581  -0.07935  -0.68413
  na=           11
  -1.98794   0.00000   0.00000
   0.00000  -1.98794   0.00000
   0.00000   0.00000  -0.58152
  na=           12
  -0.83158   0.00000   0.41065
  -0.00000  -0.43384  -0.00000
   0.29659  -0.00000  -0.83252
  na=           13
  -0.53328   0.17223  -0.20532
   0.17223  -0.73215   0.35563
  -0.14829   0.25685  -0.83252
  na=           14
  -0.53328  -0.17223  -0.20532
  -0.17223  -0.73215  -0.35563
  -0.14829  -0.25685  -0.83252
  na=           15
  -0.83158   0.00000   0.41065
  -0.00000  -0.43384  -0.00000
   0.29659   0.00000  -0.83252
  na=           16
  -0.53328   0.17223  -0.20532
   0.17223  -0.73215   0.35563
  -0.14829   0.25685  -0.83252
  na=           17
  -0.53328  -0.17223  -0.20532
  -0.17223  -0.73215  -0.35563
  -0.14829  -0.25685  -0.83252
  na=           18
  -1.98794   0.00000   0.00000
   0.00000  -1.98794   0.00000
   0.00000   0.00000  -0.58152
  na=           19
  -0.49131   0.00000   0.05784
   0.00000  -2.96474   0.00000
   0.09163  -0.00000  -0.68413
  na=           20
  -2.34638  -1.07103  -0.02892
  -1.07103  -1.10967   0.05009
  -0.04581   0.07935  -0.68413
  na=           21
  -2.34638   1.07103  -0.02892
   1.07103  -1.10967  -0.05009
  -0.04581  -0.07935  -0.68413
  na=           22
  -0.23320   0.00000  -0.00000
   0.00000  -0.23320  -0.00000
  -0.00000  -0.00000  -0.95883
  alpha Ewald:    3.1523641291413442     
  nqs=            1
 q=   0.00000000  0.00000000  0.00000000
  reading force constants from file dyn2
  alpha Ewald:    3.1523641291413442     
  nqs=            1
 q=   0.00000000  0.00000000 -0.30364502
  reading force constants from file dyn3
  alpha Ewald:    3.1523641291413442     
  nqs=            3
 q=   0.28867514 -0.50000000  0.10121501
 q=   0.57735027  0.00000000 -0.10121501
 q=  -0.28867514 -0.50000000 -0.10121501
  reading force constants from file dyn4
  alpha Ewald:    3.1523641291413442     
  nqs=            3
 q=   0.28867514 -0.50000000 -0.20243002
 q=   0.57735027  0.00000000  0.20243002
 q=  -0.28867514 -0.50000000  0.20243002

      q-space grid ok, #points =    8

      fft-check warning: sum of imaginary terms = 3.207232E-07

     Q2R          :      0.94s CPU      0.99s WALL


   This run was terminated on:   4: 4:45   1Jun2025            

=------------------------------------------------------------------------------=
   JOB DONE.
=------------------------------------------------------------------------------=
