
     Program PHONON v.7.3.1 starts on 11May2025 at 12:13:22 

     This program is part of the open-source Quantum ESPRESSO suite
     for quantum simulation of materials; please cite
         "P. Giannozzi et al., J. Phys.:Condens. Matter 21 395502 (2009);
         "P. Giannozzi et al., J. Phys.:Condens. Matter 29 465901 (2017);
         "P. Giannozzi et al., J. Chem. Phys. 152 154105 (2020);
          URL http://www.quantum-espresso.org", 
     in publications or presentations arising from this work. More details at
     http://www.quantum-espresso.org/quote

     Parallel version (MPI & OpenMP), running on     384 processor cores
     Number of MPI processes:               384
     Threads/MPI process:                     1

     MPI processes distributed on     2 nodes
     339017 MiB available memory on the printing compute node when the environment starts

     Waiting for input...
     Reading input from standard input

     Reading xml data from directory:

     ./out/Nb3I8.save/

     K-points division:     npool     =      12
     R & G space division:  proc/nbgrp/npool/nimage =      32
     Subspace diagonalization in iterative solution of the eigenvalue problem:
     one sub-group per band group will be used
     ELPA distributed-memory algorithm (size of sub-group:  2*  2 procs)


     IMPORTANT: XC functional enforced from input :
     Exchange-correlation= PBE
                           (   1   4   3   4   0   0   0)
     Any further DFT definition will be discarded
     Please, verify this is what you really want


     Parallelization info
     --------------------
     sticks:   dense  smooth     PW     G-vecs:    dense   smooth      PW
     Min         179     179     47                19743    19743    2690
     Max         180     180     48                19748    19748    2697
     Sum        5731    5731   1519               631887   631887   86161

     Using Slab Decomposition

     Reading collected, re-writing distributed wavefunctions in ./out/

     Saving dvscf to file. Distribute only q points, not irreducible representations.
        2 /   4 q-points for this run, from  3 to  4:
       N       xq(1)         xq(2)         xq(3) 
       1   0.000000000   0.000000000   0.000000000
       2   0.000000000   0.000000000  -0.277547388
       3   0.288675135  -0.500000000   0.092515796
       4   0.288675135  -0.500000000  -0.185031592


     Calculation of q =    0.2886751  -0.5000000   0.0925158

     Bands found: reading from ./out/_ph0/Nb3I8.q_3/

     Reading xml data from directory:

     ./out/_ph0/Nb3I8.q_3/Nb3I8.save/
     Message from routine qexsd_readschema :
     input info not found or not readable in xml file

     IMPORTANT: XC functional enforced from input :
     Exchange-correlation= PBE
                           (   1   4   3   4   0   0   0)
     Any further DFT definition will be discarded
     Please, verify this is what you really want


     Parallelization info
     --------------------
     sticks:   dense  smooth     PW     G-vecs:    dense   smooth      PW
     Min         179     179     49                19743    19743    2875
     Max         180     180     50                19748    19748    2884
     Sum        5731    5731   1585               631887   631887   92133

     Using Slab Decomposition

     read_file_new: Wavefunctions not in collected format?!?
     read_file: Wavefunctions in collected format not available

     Restart in Phonon calculation

     Nb3I8                                                                      

     bravais-lattice index     =            0
     lattice parameter (alat)  =      14.4200  a.u.
     unit-cell volume          =    4677.9756 (a.u.)^3
     number of atoms/cell      =           22
     number of atomic types    =            2
     kinetic-energy cut-off    =     100.0000  Ry
     charge density cut-off    =     400.0000  Ry
     convergence threshold     =      1.0E-16
     beta                      =       0.7000
     number of iterations used =            4
     Exchange-correlation= PBE
                           (   1   4   3   4   0   0   0)


     celldm(1)=   14.41999  celldm(2)=    0.00000  celldm(3)=    0.00000
     celldm(4)=    0.00000  celldm(5)=    0.00000  celldm(6)=    0.00000

     crystal axes: (cart. coord. in units of alat)
               a(1) = (  0.8660  0.5000  0.0000 )  
               a(2) = ( -0.8660  0.5000  0.0000 )  
               a(3) = ( -0.5774  0.0000  1.8015 )  

     reciprocal axes: (cart. coord. in units 2 pi/alat)
               b(1) = (  0.5774  1.0000  0.1850 )  
               b(2) = ( -0.5774  1.0000 -0.1850 )  
               b(3) = (  0.0000 -0.0000  0.5551 )  


     Atoms inside the unit cell: 

     Cartesian axes

     site n.  atom      mass           positions (alat units)
        1  Nb     92.9064   tau(    1) = (   -1.21677    0.50000    1.34532  )
        2  Nb     92.9064   tau(    2) = (   -0.69065    0.19625    1.34532  )
        3  Nb     92.9064   tau(    3) = (   -0.69065    0.80375    1.34532  )
        4  Nb     92.9064   tau(    4) = (    0.63942    0.50000    0.45617  )
        5  Nb     92.9064   tau(    5) = (    0.11330    0.80375    0.45617  )
        6  Nb     92.9064   tau(    6) = (    0.11330    0.19625    0.45617  )
        7  I     126.9045   tau(    7) = (    0.28868    0.50000    1.06514  )
        8  I     126.9045   tau(    8) = (   -0.57012    0.50000    1.14509  )
        9  I     126.9045   tau(    9) = (   -0.14795    0.25626    1.14509  )
       10  I     126.9045   tau(   10) = (   -0.14795    0.74374    1.14509  )
       11  I     126.9045   tau(   11) = (   -0.86603    0.50000    1.53629  )
       12  I     126.9045   tau(   12) = (   -0.00089    0.50000    1.59225  )
       13  I     126.9045   tau(   13) = (   -0.43257    0.74923    1.59225  )
       14  I     126.9045   tau(   14) = (   -0.43257    0.25077    1.59225  )
       15  I     126.9045   tau(   15) = (   -0.57646    0.50000    0.20924  )
       16  I     126.9045   tau(   16) = (   -0.14478    0.25077    0.20924  )
       17  I     126.9045   tau(   17) = (   -0.14478    0.74923    0.20924  )
       18  I     126.9045   tau(   18) = (    0.28868    0.50000    0.26521  )
       19  I     126.9045   tau(   19) = (   -0.00723    0.50000    0.65640  )
       20  I     126.9045   tau(   20) = (   -0.42940    0.74374    0.65640  )
       21  I     126.9045   tau(   21) = (   -0.42940    0.25626    0.65640  )
       22  I     126.9045   tau(   22) = (   -0.86603    0.50000    0.73635  )

     Computing dynamical matrix for 
                    q = (   0.2886751  -0.5000000   0.0925158 )

      5 Sym.Ops. (with q -> -q+G )


     G cutoff = 2106.8320  (  19747 G-vectors)     FFT grid: (180,180,180)

     number of k points=   136  Gaussian smearing, width (Ry)=  0.0037

     PseudoPot. # 1 for Nb read from file:
     /scratch-shared/mroesner/Nb3X8_cDFPT/pp/Nb_ONCV_PBE-1.2.upf
     MD5 check sum: 2c750ac0b6910ff4cf0ab5f6c4124a64
     Pseudo is Norm-conserving, Zval = 13.0
     Generated using ONCVPSP code by D. R. Hamann
     Using radial grid of  602 points,  6 beta functions with: 
                l(1) =   0
                l(2) =   0
                l(3) =   1
                l(4) =   1
                l(5) =   2
                l(6) =   2

     PseudoPot. # 2 for I  read from file:
     /scratch-shared/mroesner/Nb3X8_cDFPT/pp/I_ONCV_PBE-1.2.upf
     MD5 check sum: 8277ef51204d8074ead4596f3b37a2aa
     Pseudo is Norm-conserving, Zval = 17.0
     Generated using ONCVPSP code by D. R. Hamann
     Using radial grid of  602 points,  6 beta functions with: 
                l(1) =   0
                l(2) =   0
                l(3) =   1
                l(4) =   1
                l(5) =   2
                l(6) =   2

     Mode symmetry, C_2h (2/m)  point group:


     Atomic displacements:
     There are   66 irreducible representations

     Representation     1      1 modes -  Done

     Representation     2      1 modes -  Done

     Representation     3      1 modes -  Done

     Representation     4      1 modes -  Done

     Representation     5      1 modes -  Done

     Representation     6      1 modes -  Done

     Representation     7      1 modes -  Done

     Representation     8      1 modes -  Done

     Representation     9      1 modes -  Done

     Representation    10      1 modes -  Done

     Representation    11      1 modes -  Done

     Representation    12      1 modes -  Done

     Representation    13      1 modes -  Done

     Representation    14      1 modes -  Done

     Representation    15      1 modes -  Done

     Representation    16      1 modes -  Done

     Representation    17      1 modes -  Done

     Representation    18      1 modes -  Done

     Representation    19      1 modes -  Done

     Representation    20      1 modes -  Done

     Representation    21      1 modes -  Done

     Representation    22      1 modes -  Done

     Representation    23      1 modes -  Done

     Representation    24      1 modes -  Done

     Representation    25      1 modes -  Done

     Representation    26      1 modes -  Done

     Representation    27      1 modes -  Done

     Representation    28      1 modes -  Done

     Representation    29      1 modes -  Done

     Representation    30      1 modes -  Done

     Representation    31      1 modes -  Done

     Representation    32      1 modes -  Done

     Representation    33      1 modes -  Done

     Representation    34      1 modes -  Done

     Representation    35      1 modes -  Done

     Representation    36      1 modes -  To be done

     Representation    37      1 modes -  To be done

     Representation    38      1 modes -  To be done

     Representation    39      1 modes -  To be done

     Representation    40      1 modes -  To be done

     Representation    41      1 modes -  To be done

     Representation    42      1 modes -  To be done

     Representation    43      1 modes -  To be done

     Representation    44      1 modes -  To be done

     Representation    45      1 modes -  To be done

     Representation    46      1 modes -  To be done

     Representation    47      1 modes -  To be done

     Representation    48      1 modes -  To be done

     Representation    49      1 modes -  To be done

     Representation    50      1 modes -  To be done

     Representation    51      1 modes -  To be done

     Representation    52      1 modes -  To be done

     Representation    53      1 modes -  To be done

     Representation    54      1 modes -  To be done

     Representation    55      1 modes -  To be done

     Representation    56      1 modes -  To be done

     Representation    57      1 modes -  To be done

     Representation    58      1 modes -  To be done

     Representation    59      1 modes -  To be done

     Representation    60      1 modes -  To be done

     Representation    61      1 modes -  To be done

     Representation    62      1 modes -  To be done

     Representation    63      1 modes -  To be done

     Representation    64      1 modes -  To be done

     Representation    65      1 modes -  To be done

     Representation    66      1 modes -  To be done


     Message from routine init_vloc:
     Interpolation table for Vloc re-allocated
     PHONON       :     13.24s CPU     52.51s WALL



     Representation #  36 mode #  36

     Self-consistent Calculation

      iter #   1 total cpu time :   156.8 secs   av.it.:   6.0
      thresh= 1.000E-02 alpha_mix =  0.700 |ddv_scf|^2 =  6.212E-08

      iter #   2 total cpu time :   305.3 secs   av.it.:  17.8
      thresh= 2.492E-05 alpha_mix =  0.700 |ddv_scf|^2 =  1.244E-06

      iter #   3 total cpu time :   443.7 secs   av.it.:  14.9
      thresh= 1.115E-04 alpha_mix =  0.700 |ddv_scf|^2 =  1.017E-07

      iter #   4 total cpu time :   587.4 secs   av.it.:  15.4
      thresh= 3.189E-05 alpha_mix =  0.700 |ddv_scf|^2 =  2.643E-09

      iter #   5 total cpu time :   729.0 secs   av.it.:  15.8
      thresh= 5.141E-06 alpha_mix =  0.700 |ddv_scf|^2 =  1.556E-10

      iter #   6 total cpu time :   868.8 secs   av.it.:  15.7
      thresh= 1.248E-06 alpha_mix =  0.700 |ddv_scf|^2 =  2.884E-12

      iter #   7 total cpu time :  1015.7 secs   av.it.:  16.7
      thresh= 1.698E-07 alpha_mix =  0.700 |ddv_scf|^2 =  2.083E-13

      iter #   8 total cpu time :  1159.0 secs   av.it.:  17.0
      thresh= 4.564E-08 alpha_mix =  0.700 |ddv_scf|^2 =  7.964E-14

      iter #   9 total cpu time :  1305.0 secs   av.it.:  16.8
      thresh= 2.822E-08 alpha_mix =  0.700 |ddv_scf|^2 =  6.192E-15

      iter #  10 total cpu time :  1456.3 secs   av.it.:  17.0
      thresh= 7.869E-09 alpha_mix =  0.700 |ddv_scf|^2 =  3.933E-15

      iter #  11 total cpu time :  1605.8 secs   av.it.:  16.7
      thresh= 6.271E-09 alpha_mix =  0.700 |ddv_scf|^2 =  6.662E-15

      iter #  12 total cpu time :  1740.4 secs   av.it.:  15.0
      thresh= 8.162E-09 alpha_mix =  0.700 |ddv_scf|^2 =  7.002E-17

     End of self-consistent calculation

     Convergence has been achieved 


     Representation #  37 mode #  37

     Self-consistent Calculation

      iter #   1 total cpu time :  1847.9 secs   av.it.:   6.0
      thresh= 1.000E-02 alpha_mix =  0.700 |ddv_scf|^2 =  4.617E-08

      iter #   2 total cpu time :  1999.2 secs   av.it.:  17.7
      thresh= 2.149E-05 alpha_mix =  0.700 |ddv_scf|^2 =  2.606E-07

      iter #   3 total cpu time :  2143.5 secs   av.it.:  15.9
      thresh= 5.105E-05 alpha_mix =  0.700 |ddv_scf|^2 =  2.605E-07

      iter #   4 total cpu time :  2282.9 secs   av.it.:  15.0
      thresh= 5.104E-05 alpha_mix =  0.700 |ddv_scf|^2 =  6.914E-09

      iter #   5 total cpu time :  2426.2 secs   av.it.:  15.7
      thresh= 8.315E-06 alpha_mix =  0.700 |ddv_scf|^2 =  5.753E-11

      iter #   6 total cpu time :  2574.6 secs   av.it.:  16.0
      thresh= 7.585E-07 alpha_mix =  0.700 |ddv_scf|^2 =  2.907E-12

      iter #   7 total cpu time :  2729.4 secs   av.it.:  16.9
      thresh= 1.705E-07 alpha_mix =  0.700 |ddv_scf|^2 =  1.713E-13

      iter #   8 total cpu time :  2876.5 secs   av.it.:  17.0
      thresh= 4.139E-08 alpha_mix =  0.700 |ddv_scf|^2 =  2.821E-14

      iter #   9 total cpu time :  3020.7 secs   av.it.:  17.0
      thresh= 1.680E-08 alpha_mix =  0.700 |ddv_scf|^2 =  4.075E-15

      iter #  10 total cpu time :  3164.1 secs   av.it.:  17.6
      thresh= 6.383E-09 alpha_mix =  0.700 |ddv_scf|^2 =  2.100E-15

      iter #  11 total cpu time :  3306.9 secs   av.it.:  16.9
      thresh= 4.583E-09 alpha_mix =  0.700 |ddv_scf|^2 =  9.559E-15

      iter #  12 total cpu time :  3434.5 secs   av.it.:  15.0
      thresh= 9.777E-09 alpha_mix =  0.700 |ddv_scf|^2 =  9.417E-17

     End of self-consistent calculation

     Convergence has been achieved 


     Representation #  38 mode #  38

     Self-consistent Calculation

      iter #   1 total cpu time :  3533.8 secs   av.it.:   6.0
      thresh= 1.000E-02 alpha_mix =  0.700 |ddv_scf|^2 =  1.653E-07

      iter #   2 total cpu time :  3683.0 secs   av.it.:  17.8
      thresh= 4.066E-05 alpha_mix =  0.700 |ddv_scf|^2 =  5.246E-06

      iter #   3 total cpu time :  3815.5 secs   av.it.:  14.7
      thresh= 2.290E-04 alpha_mix =  0.700 |ddv_scf|^2 =  1.497E-07

      iter #   4 total cpu time :  3955.0 secs   av.it.:  15.6
      thresh= 3.869E-05 alpha_mix =  0.700 |ddv_scf|^2 =  8.412E-10

      iter #   5 total cpu time :  4103.2 secs   av.it.:  16.7
      thresh= 2.900E-06 alpha_mix =  0.700 |ddv_scf|^2 =  2.382E-11

      iter #   6 total cpu time :  4248.0 secs   av.it.:  16.9
      thresh= 4.880E-07 alpha_mix =  0.700 |ddv_scf|^2 =  4.898E-12

      iter #   7 total cpu time :  4392.9 secs   av.it.:  16.4
      thresh= 2.213E-07 alpha_mix =  0.700 |ddv_scf|^2 =  6.962E-13

      iter #   8 total cpu time :  4534.1 secs   av.it.:  16.1
      thresh= 8.344E-08 alpha_mix =  0.700 |ddv_scf|^2 =  1.416E-13

      iter #   9 total cpu time :  4678.2 secs   av.it.:  16.2
      thresh= 3.763E-08 alpha_mix =  0.700 |ddv_scf|^2 =  1.836E-14

      iter #  10 total cpu time :  4816.5 secs   av.it.:  16.0
      thresh= 1.355E-08 alpha_mix =  0.700 |ddv_scf|^2 =  3.808E-15

      iter #  11 total cpu time :  4958.0 secs   av.it.:  16.9
      thresh= 6.171E-09 alpha_mix =  0.700 |ddv_scf|^2 =  1.289E-15

      iter #  12 total cpu time :  5099.9 secs   av.it.:  16.7
      thresh= 3.590E-09 alpha_mix =  0.700 |ddv_scf|^2 =  1.675E-16

      iter #  13 total cpu time :  5245.2 secs   av.it.:  17.3
      thresh= 1.294E-09 alpha_mix =  0.700 |ddv_scf|^2 =  7.244E-16

      iter #  14 total cpu time :  5375.5 secs   av.it.:  15.0
      thresh= 2.692E-09 alpha_mix =  0.700 |ddv_scf|^2 =  2.145E-17

     End of self-consistent calculation

     Convergence has been achieved 


     Representation #  39 mode #  39

     Self-consistent Calculation

      iter #   1 total cpu time :  5478.4 secs   av.it.:   6.0
      thresh= 1.000E-02 alpha_mix =  0.700 |ddv_scf|^2 =  9.062E-08

      iter #   2 total cpu time :  5631.2 secs   av.it.:  17.9
      thresh= 3.010E-05 alpha_mix =  0.700 |ddv_scf|^2 =  2.505E-06

      iter #   3 total cpu time :  5764.6 secs   av.it.:  14.8
      thresh= 1.583E-04 alpha_mix =  0.700 |ddv_scf|^2 =  1.015E-07

      iter #   4 total cpu time :  5907.8 secs   av.it.:  15.8
      thresh= 3.186E-05 alpha_mix =  0.700 |ddv_scf|^2 =  2.569E-09

      iter #   5 total cpu time :  6051.0 secs   av.it.:  16.0
      thresh= 5.068E-06 alpha_mix =  0.700 |ddv_scf|^2 =  4.398E-11

      iter #   6 total cpu time :  6197.3 secs   av.it.:  16.1
      thresh= 6.632E-07 alpha_mix =  0.700 |ddv_scf|^2 =  2.705E-12

      iter #   7 total cpu time :  6339.4 secs   av.it.:  16.8
      thresh= 1.645E-07 alpha_mix =  0.700 |ddv_scf|^2 =  7.144E-14

      iter #   8 total cpu time :  6488.1 secs   av.it.:  17.4
      thresh= 2.673E-08 alpha_mix =  0.700 |ddv_scf|^2 =  1.800E-14

      iter #   9 total cpu time :  6640.0 secs   av.it.:  17.7
      thresh= 1.342E-08 alpha_mix =  0.700 |ddv_scf|^2 =  1.539E-14

      iter #  10 total cpu time :  6783.5 secs   av.it.:  16.2
      thresh= 1.240E-08 alpha_mix =  0.700 |ddv_scf|^2 =  2.945E-14

      iter #  11 total cpu time :  6920.4 secs   av.it.:  15.2
      thresh= 1.716E-08 alpha_mix =  0.700 |ddv_scf|^2 =  3.136E-15

      iter #  12 total cpu time :  7059.2 secs   av.it.:  16.0
      thresh= 5.600E-09 alpha_mix =  0.700 |ddv_scf|^2 =  1.027E-15

      iter #  13 total cpu time :  7198.4 secs   av.it.:  15.9
      thresh= 3.205E-09 alpha_mix =  0.700 |ddv_scf|^2 =  2.896E-17

     End of self-consistent calculation

     Convergence has been achieved 


     Representation #  40 mode #  40

     Self-consistent Calculation

      iter #   1 total cpu time :  7304.5 secs   av.it.:   6.0
      thresh= 1.000E-02 alpha_mix =  0.700 |ddv_scf|^2 =  3.588E-08

      iter #   2 total cpu time :  7455.9 secs   av.it.:  17.9
      thresh= 1.894E-05 alpha_mix =  0.700 |ddv_scf|^2 =  7.042E-07

      iter #   3 total cpu time :  7597.8 secs   av.it.:  14.9
      thresh= 8.392E-05 alpha_mix =  0.700 |ddv_scf|^2 =  7.280E-08

      iter #   4 total cpu time :  7735.9 secs   av.it.:  15.0
      thresh= 2.698E-05 alpha_mix =  0.700 |ddv_scf|^2 =  4.692E-10

      iter #   5 total cpu time :  7882.8 secs   av.it.:  16.7
      thresh= 2.166E-06 alpha_mix =  0.700 |ddv_scf|^2 =  1.133E-10

      iter #   6 total cpu time :  8024.7 secs   av.it.:  16.0
      thresh= 1.064E-06 alpha_mix =  0.700 |ddv_scf|^2 =  2.903E-12

      iter #   7 total cpu time :  8169.5 secs   av.it.:  16.2
      thresh= 1.704E-07 alpha_mix =  0.700 |ddv_scf|^2 =  2.242E-13

      iter #   8 total cpu time :  8322.9 secs   av.it.:  16.8
      thresh= 4.735E-08 alpha_mix =  0.700 |ddv_scf|^2 =  2.149E-14

      iter #   9 total cpu time :  8468.8 secs   av.it.:  16.8
      thresh= 1.466E-08 alpha_mix =  0.700 |ddv_scf|^2 =  3.631E-15

      iter #  10 total cpu time :  8613.3 secs   av.it.:  17.0
      thresh= 6.026E-09 alpha_mix =  0.700 |ddv_scf|^2 =  1.013E-15

      iter #  11 total cpu time :  8755.8 secs   av.it.:  17.0
      thresh= 3.183E-09 alpha_mix =  0.700 |ddv_scf|^2 =  8.609E-16

      iter #  12 total cpu time :  8895.7 secs   av.it.:  16.0
      thresh= 2.934E-09 alpha_mix =  0.700 |ddv_scf|^2 =  6.241E-16

      iter #  13 total cpu time :  9027.6 secs   av.it.:  15.6
      thresh= 2.498E-09 alpha_mix =  0.700 |ddv_scf|^2 =  4.612E-17

     End of self-consistent calculation

     Convergence has been achieved 


     Representation #  41 mode #  41

     Self-consistent Calculation

      iter #   1 total cpu time :  9133.2 secs   av.it.:   6.0
      thresh= 1.000E-02 alpha_mix =  0.700 |ddv_scf|^2 =  1.024E-07

      iter #   2 total cpu time :  9283.7 secs   av.it.:  17.9
      thresh= 3.200E-05 alpha_mix =  0.700 |ddv_scf|^2 =  2.126E-06

      iter #   3 total cpu time :  9419.1 secs   av.it.:  14.9
      thresh= 1.458E-04 alpha_mix =  0.700 |ddv_scf|^2 =  1.928E-07

      iter #   4 total cpu time :  9558.6 secs   av.it.:  15.0
      thresh= 4.391E-05 alpha_mix =  0.700 |ddv_scf|^2 =  2.715E-09

      iter #   5 total cpu time :  9706.7 secs   av.it.:  16.2
      thresh= 5.210E-06 alpha_mix =  0.700 |ddv_scf|^2 =  1.608E-10

      iter #   6 total cpu time :  9852.5 secs   av.it.:  16.0
      thresh= 1.268E-06 alpha_mix =  0.700 |ddv_scf|^2 =  9.169E-12

      iter #   7 total cpu time :  9999.5 secs   av.it.:  16.6
      thresh= 3.028E-07 alpha_mix =  0.700 |ddv_scf|^2 =  9.671E-13

      iter #   8 total cpu time : 10144.7 secs   av.it.:  16.2
      thresh= 9.834E-08 alpha_mix =  0.700 |ddv_scf|^2 =  1.306E-13

      iter #   9 total cpu time : 10290.1 secs   av.it.:  16.1
      thresh= 3.614E-08 alpha_mix =  0.700 |ddv_scf|^2 =  2.290E-14

      iter #  10 total cpu time : 10434.7 secs   av.it.:  17.0
      thresh= 1.513E-08 alpha_mix =  0.700 |ddv_scf|^2 =  9.095E-15

      iter #  11 total cpu time : 10575.4 secs   av.it.:  16.0
      thresh= 9.537E-09 alpha_mix =  0.700 |ddv_scf|^2 =  1.099E-15

      iter #  12 total cpu time : 10720.6 secs   av.it.:  16.7
      thresh= 3.315E-09 alpha_mix =  0.700 |ddv_scf|^2 =  1.777E-16

      iter #  13 total cpu time : 10868.1 secs   av.it.:  17.0
      thresh= 1.333E-09 alpha_mix =  0.700 |ddv_scf|^2 =  1.318E-16

      iter #  14 total cpu time : 11002.9 secs   av.it.:  15.9
      thresh= 1.148E-09 alpha_mix =  0.700 |ddv_scf|^2 =  9.844E-18

     End of self-consistent calculation

     Convergence has been achieved 


     Representation #  42 mode #  42

     Self-consistent Calculation

      iter #   1 total cpu time : 11108.4 secs   av.it.:   6.3
      thresh= 1.000E-02 alpha_mix =  0.700 |ddv_scf|^2 =  3.035E-07

      iter #   2 total cpu time : 11258.8 secs   av.it.:  17.8
      thresh= 5.509E-05 alpha_mix =  0.700 |ddv_scf|^2 =  8.302E-06

      iter #   3 total cpu time : 11393.6 secs   av.it.:  14.8
      thresh= 2.881E-04 alpha_mix =  0.700 |ddv_scf|^2 =  4.788E-07

      iter #   4 total cpu time : 11528.3 secs   av.it.:  15.2
      thresh= 6.920E-05 alpha_mix =  0.700 |ddv_scf|^2 =  3.800E-09

      iter #   5 total cpu time : 11680.2 secs   av.it.:  16.0
      thresh= 6.164E-06 alpha_mix =  0.700 |ddv_scf|^2 =  6.724E-11

      iter #   6 total cpu time : 11829.3 secs   av.it.:  16.8
      thresh= 8.200E-07 alpha_mix =  0.700 |ddv_scf|^2 =  1.268E-11

      iter #   7 total cpu time : 11973.7 secs   av.it.:  16.4
      thresh= 3.560E-07 alpha_mix =  0.700 |ddv_scf|^2 =  3.318E-13

      iter #   8 total cpu time : 12132.3 secs   av.it.:  17.0
      thresh= 5.760E-08 alpha_mix =  0.700 |ddv_scf|^2 =  1.608E-13

      iter #   9 total cpu time : 12278.4 secs   av.it.:  16.4
      thresh= 4.010E-08 alpha_mix =  0.700 |ddv_scf|^2 =  6.241E-15

      iter #  10 total cpu time : 12433.3 secs   av.it.:  17.5
      thresh= 7.900E-09 alpha_mix =  0.700 |ddv_scf|^2 =  8.313E-15

      iter #  11 total cpu time : 12577.8 secs   av.it.:  16.0
      thresh= 9.118E-09 alpha_mix =  0.700 |ddv_scf|^2 =  2.454E-16

      iter #  12 total cpu time : 12727.9 secs   av.it.:  17.2
      thresh= 1.567E-09 alpha_mix =  0.700 |ddv_scf|^2 =  2.272E-16

      iter #  13 total cpu time : 12867.5 secs   av.it.:  16.0
      thresh= 1.507E-09 alpha_mix =  0.700 |ddv_scf|^2 =  8.245E-17

     End of self-consistent calculation

     Convergence has been achieved 


     Representation #  43 mode #  43

     Self-consistent Calculation

      iter #   1 total cpu time : 12981.1 secs   av.it.:   6.1
      thresh= 1.000E-02 alpha_mix =  0.700 |ddv_scf|^2 =  2.514E-07

      iter #   2 total cpu time : 13138.0 secs   av.it.:  17.9
      thresh= 5.014E-05 alpha_mix =  0.700 |ddv_scf|^2 =  8.642E-06

      iter #   3 total cpu time : 13273.5 secs   av.it.:  14.7
      thresh= 2.940E-04 alpha_mix =  0.700 |ddv_scf|^2 =  2.022E-07

      iter #   4 total cpu time : 13421.9 secs   av.it.:  15.7
      thresh= 4.497E-05 alpha_mix =  0.700 |ddv_scf|^2 =  1.702E-09

      iter #   5 total cpu time : 13574.3 secs   av.it.:  16.2
      thresh= 4.125E-06 alpha_mix =  0.700 |ddv_scf|^2 =  1.952E-11

      iter #   6 total cpu time : 13732.4 secs   av.it.:  17.0
      thresh= 4.418E-07 alpha_mix =  0.700 |ddv_scf|^2 =  2.087E-12

      iter #   7 total cpu time : 13878.6 secs   av.it.:  16.9
      thresh= 1.445E-07 alpha_mix =  0.700 |ddv_scf|^2 =  6.236E-13

      iter #   8 total cpu time : 14031.5 secs   av.it.:  16.0
      thresh= 7.897E-08 alpha_mix =  0.700 |ddv_scf|^2 =  2.354E-13

      iter #   9 total cpu time : 14171.9 secs   av.it.:  15.9
      thresh= 4.852E-08 alpha_mix =  0.700 |ddv_scf|^2 =  1.331E-14

      iter #  10 total cpu time : 14316.3 secs   av.it.:  16.8
      thresh= 1.154E-08 alpha_mix =  0.700 |ddv_scf|^2 =  9.867E-15

      iter #  11 total cpu time : 14459.5 secs   av.it.:  16.0
      thresh= 9.933E-09 alpha_mix =  0.700 |ddv_scf|^2 =  6.610E-16

      iter #  12 total cpu time : 14599.2 secs   av.it.:  16.8
      thresh= 2.571E-09 alpha_mix =  0.700 |ddv_scf|^2 =  2.902E-17

     End of self-consistent calculation

     Convergence has been achieved 


     Representation #  44 mode #  44

     Self-consistent Calculation

      iter #   1 total cpu time : 14701.0 secs   av.it.:   6.0
      thresh= 1.000E-02 alpha_mix =  0.700 |ddv_scf|^2 =  1.331E-07

      iter #   2 total cpu time : 14852.6 secs   av.it.:  17.9
      thresh= 3.649E-05 alpha_mix =  0.700 |ddv_scf|^2 =  3.647E-06

      iter #   3 total cpu time : 14991.3 secs   av.it.:  14.8
      thresh= 1.910E-04 alpha_mix =  0.700 |ddv_scf|^2 =  2.059E-07

      iter #   4 total cpu time : 15128.7 secs   av.it.:  15.0
      thresh= 4.538E-05 alpha_mix =  0.700 |ddv_scf|^2 =  2.938E-09

      iter #   5 total cpu time : 15268.0 secs   av.it.:  16.0
      thresh= 5.420E-06 alpha_mix =  0.700 |ddv_scf|^2 =  1.089E-10

      iter #   6 total cpu time : 15414.5 secs   av.it.:  16.3
      thresh= 1.043E-06 alpha_mix =  0.700 |ddv_scf|^2 =  2.012E-12

      iter #   7 total cpu time : 15565.6 secs   av.it.:  17.0
      thresh= 1.418E-07 alpha_mix =  0.700 |ddv_scf|^2 =  1.793E-13

      iter #   8 total cpu time : 15714.5 secs   av.it.:  17.0
      thresh= 4.234E-08 alpha_mix =  0.700 |ddv_scf|^2 =  2.782E-14

      iter #   9 total cpu time : 15868.6 secs   av.it.:  17.4
      thresh= 1.668E-08 alpha_mix =  0.700 |ddv_scf|^2 =  1.257E-14

      iter #  10 total cpu time : 16012.4 secs   av.it.:  16.0
      thresh= 1.121E-08 alpha_mix =  0.700 |ddv_scf|^2 =  2.904E-15

      iter #  11 total cpu time : 16156.0 secs   av.it.:  16.0
      thresh= 5.389E-09 alpha_mix =  0.700 |ddv_scf|^2 =  3.476E-16

      iter #  12 total cpu time : 16300.9 secs   av.it.:  17.1
      thresh= 1.864E-09 alpha_mix =  0.700 |ddv_scf|^2 =  3.125E-16

      iter #  13 total cpu time : 16435.1 secs   av.it.:  16.0
      thresh= 1.768E-09 alpha_mix =  0.700 |ddv_scf|^2 =  1.626E-17

     End of self-consistent calculation

     Convergence has been achieved 


     Representation #  45 mode #  45

     Self-consistent Calculation

      iter #   1 total cpu time : 16533.9 secs   av.it.:   6.0
      thresh= 1.000E-02 alpha_mix =  0.700 |ddv_scf|^2 =  2.967E-07

      iter #   2 total cpu time : 16677.6 secs   av.it.:  17.7
      thresh= 5.447E-05 alpha_mix =  0.700 |ddv_scf|^2 =  8.295E-06

      iter #   3 total cpu time : 16811.3 secs   av.it.:  14.8
      thresh= 2.880E-04 alpha_mix =  0.700 |ddv_scf|^2 =  4.553E-07

      iter #   4 total cpu time : 16946.5 secs   av.it.:  15.0
      thresh= 6.748E-05 alpha_mix =  0.700 |ddv_scf|^2 =  3.973E-09

      iter #   5 total cpu time : 17082.2 secs   av.it.:  16.0
      thresh= 6.303E-06 alpha_mix =  0.700 |ddv_scf|^2 =  4.758E-11

      iter #   6 total cpu time : 17226.8 secs   av.it.:  16.9
      thresh= 6.898E-07 alpha_mix =  0.700 |ddv_scf|^2 =  5.934E-12

      iter #   7 total cpu time : 17373.4 secs   av.it.:  16.9
      thresh= 2.436E-07 alpha_mix =  0.700 |ddv_scf|^2 =  2.830E-13

      iter #   8 total cpu time : 17520.9 secs   av.it.:  17.0
      thresh= 5.320E-08 alpha_mix =  0.700 |ddv_scf|^2 =  1.731E-13

      iter #   9 total cpu time : 17660.6 secs   av.it.:  16.0
      thresh= 4.161E-08 alpha_mix =  0.700 |ddv_scf|^2 =  7.096E-15

      iter #  10 total cpu time : 17813.5 secs   av.it.:  17.7
      thresh= 8.424E-09 alpha_mix =  0.700 |ddv_scf|^2 =  1.683E-14

      iter #  11 total cpu time : 17957.3 secs   av.it.:  16.0
      thresh= 1.297E-08 alpha_mix =  0.700 |ddv_scf|^2 =  1.462E-16

      iter #  12 total cpu time : 18104.8 secs   av.it.:  17.6
      thresh= 1.209E-09 alpha_mix =  0.700 |ddv_scf|^2 =  1.109E-16

      iter #  13 total cpu time : 18250.7 secs   av.it.:  16.9
      thresh= 1.053E-09 alpha_mix =  0.700 |ddv_scf|^2 =  7.917E-17

     End of self-consistent calculation

     Convergence has been achieved 


     Representation #  46 mode #  46

     Self-consistent Calculation

      iter #   1 total cpu time : 18363.5 secs   av.it.:   6.0
      thresh= 1.000E-02 alpha_mix =  0.700 |ddv_scf|^2 =  6.020E-08

      iter #   2 total cpu time : 18515.5 secs   av.it.:  17.8
      thresh= 2.454E-05 alpha_mix =  0.700 |ddv_scf|^2 =  1.802E-06

      iter #   3 total cpu time : 18650.4 secs   av.it.:  14.7
      thresh= 1.342E-04 alpha_mix =  0.700 |ddv_scf|^2 =  6.281E-08

      iter #   4 total cpu time : 18789.1 secs   av.it.:  15.7
      thresh= 2.506E-05 alpha_mix =  0.700 |ddv_scf|^2 =  2.070E-09

      iter #   5 total cpu time : 18934.2 secs   av.it.:  15.9
      thresh= 4.549E-06 alpha_mix =  0.700 |ddv_scf|^2 =  2.018E-11

      iter #   6 total cpu time : 19079.3 secs   av.it.:  17.0
      thresh= 4.493E-07 alpha_mix =  0.700 |ddv_scf|^2 =  2.769E-12

      iter #   7 total cpu time : 19219.5 secs   av.it.:  16.1
      thresh= 1.664E-07 alpha_mix =  0.700 |ddv_scf|^2 =  1.926E-13

      iter #   8 total cpu time : 19366.6 secs   av.it.:  16.7
      thresh= 4.389E-08 alpha_mix =  0.700 |ddv_scf|^2 =  2.432E-14

      iter #   9 total cpu time : 19509.8 secs   av.it.:  16.6
      thresh= 1.559E-08 alpha_mix =  0.700 |ddv_scf|^2 =  9.688E-16

      iter #  10 total cpu time : 19656.3 secs   av.it.:  17.1
      thresh= 3.113E-09 alpha_mix =  0.700 |ddv_scf|^2 =  5.402E-16

      iter #  11 total cpu time : 19801.4 secs   av.it.:  16.8
      thresh= 2.324E-09 alpha_mix =  0.700 |ddv_scf|^2 =  2.210E-16

      iter #  12 total cpu time : 19949.7 secs   av.it.:  16.5
      thresh= 1.487E-09 alpha_mix =  0.700 |ddv_scf|^2 =  4.796E-17

     End of self-consistent calculation

     Convergence has been achieved 


     Representation #  47 mode #  47

     Self-consistent Calculation

      iter #   1 total cpu time : 20054.1 secs   av.it.:   6.0
      thresh= 1.000E-02 alpha_mix =  0.700 |ddv_scf|^2 =  4.614E-08

      iter #   2 total cpu time : 20199.8 secs   av.it.:  17.4
      thresh= 2.148E-05 alpha_mix =  0.700 |ddv_scf|^2 =  3.924E-07

      iter #   3 total cpu time : 20336.6 secs   av.it.:  15.2
      thresh= 6.264E-05 alpha_mix =  0.700 |ddv_scf|^2 =  2.177E-07

      iter #   4 total cpu time : 20474.4 secs   av.it.:  15.0
      thresh= 4.666E-05 alpha_mix =  0.700 |ddv_scf|^2 =  7.703E-10

      iter #   5 total cpu time : 20622.0 secs   av.it.:  16.6
      thresh= 2.775E-06 alpha_mix =  0.700 |ddv_scf|^2 =  4.182E-11

      iter #   6 total cpu time : 20760.0 secs   av.it.:  16.0
      thresh= 6.467E-07 alpha_mix =  0.700 |ddv_scf|^2 =  1.283E-12

      iter #   7 total cpu time : 20907.0 secs   av.it.:  16.9
      thresh= 1.133E-07 alpha_mix =  0.700 |ddv_scf|^2 =  8.674E-14

      iter #   8 total cpu time : 21063.1 secs   av.it.:  17.0
      thresh= 2.945E-08 alpha_mix =  0.700 |ddv_scf|^2 =  6.663E-14

      iter #   9 total cpu time : 21210.3 secs   av.it.:  16.0
      thresh= 2.581E-08 alpha_mix =  0.700 |ddv_scf|^2 =  2.283E-14

      iter #  10 total cpu time : 21352.9 secs   av.it.:  16.0
      thresh= 1.511E-08 alpha_mix =  0.700 |ddv_scf|^2 =  4.681E-15

      iter #  11 total cpu time : 21506.7 secs   av.it.:  17.0
      thresh= 6.842E-09 alpha_mix =  0.700 |ddv_scf|^2 =  5.289E-15

      iter #  12 total cpu time : 21638.2 secs   av.it.:  15.0
      thresh= 7.273E-09 alpha_mix =  0.700 |ddv_scf|^2 =  5.627E-17

     End of self-consistent calculation

     Convergence has been achieved 


     Representation #  48 mode #  48

     Self-consistent Calculation

      iter #   1 total cpu time : 21752.9 secs   av.it.:   7.0
      thresh= 1.000E-02 alpha_mix =  0.700 |ddv_scf|^2 =  3.513E-06

      iter #   2 total cpu time : 21902.0 secs   av.it.:  17.0
      thresh= 1.874E-04 alpha_mix =  0.700 |ddv_scf|^2 =  2.683E-04

      iter #   3 total cpu time : 22035.2 secs   av.it.:  13.0
      thresh= 1.638E-03 alpha_mix =  0.700 |ddv_scf|^2 =  3.116E-06

      iter #   4 total cpu time : 22178.2 secs   av.it.:  14.1
      thresh= 1.765E-04 alpha_mix =  0.700 |ddv_scf|^2 =  1.247E-06

      iter #   5 total cpu time : 22319.7 secs   av.it.:  14.0
      thresh= 1.117E-04 alpha_mix =  0.700 |ddv_scf|^2 =  2.315E-07

      iter #   6 total cpu time : 22462.0 secs   av.it.:  14.8
      thresh= 4.811E-05 alpha_mix =  0.700 |ddv_scf|^2 =  2.018E-08

      iter #   7 total cpu time : 22606.2 secs   av.it.:  15.0
      thresh= 1.420E-05 alpha_mix =  0.700 |ddv_scf|^2 =  5.285E-09

      iter #   8 total cpu time : 22744.5 secs   av.it.:  14.3
      thresh= 7.270E-06 alpha_mix =  0.700 |ddv_scf|^2 =  3.526E-10

      iter #   9 total cpu time : 22895.1 secs   av.it.:  16.4
      thresh= 1.878E-06 alpha_mix =  0.700 |ddv_scf|^2 =  6.456E-10

      iter #  10 total cpu time : 23034.7 secs   av.it.:  14.8
      thresh= 2.541E-06 alpha_mix =  0.700 |ddv_scf|^2 =  1.899E-11

      iter #  11 total cpu time : 23181.2 secs   av.it.:  15.9
      thresh= 4.358E-07 alpha_mix =  0.700 |ddv_scf|^2 =  3.332E-11

      iter #  12 total cpu time : 23318.2 secs   av.it.:  14.0
      thresh= 5.772E-07 alpha_mix =  0.700 |ddv_scf|^2 =  3.454E-12

      iter #  13 total cpu time : 23465.1 secs   av.it.:  15.9
      thresh= 1.858E-07 alpha_mix =  0.700 |ddv_scf|^2 =  1.994E-12

      iter #  14 total cpu time : 23606.4 secs   av.it.:  15.0
      thresh= 1.412E-07 alpha_mix =  0.700 |ddv_scf|^2 =  3.948E-13

      iter #  15 total cpu time : 23750.3 secs   av.it.:  14.9
      thresh= 6.283E-08 alpha_mix =  0.700 |ddv_scf|^2 =  5.871E-14

      iter #  16 total cpu time : 23900.9 secs   av.it.:  16.8
      thresh= 2.423E-08 alpha_mix =  0.700 |ddv_scf|^2 =  4.206E-13

      iter #  17 total cpu time : 24041.8 secs   av.it.:  14.2
      thresh= 6.486E-08 alpha_mix =  0.700 |ddv_scf|^2 =  2.824E-15

      iter #  18 total cpu time : 24192.4 secs   av.it.:  17.0
      thresh= 5.315E-09 alpha_mix =  0.700 |ddv_scf|^2 =  1.594E-15

      iter #  19 total cpu time : 24340.0 secs   av.it.:  16.1
      thresh= 3.993E-09 alpha_mix =  0.700 |ddv_scf|^2 =  5.384E-15

      iter #  20 total cpu time : 24478.5 secs   av.it.:  14.0
      thresh= 7.338E-09 alpha_mix =  0.700 |ddv_scf|^2 =  9.244E-16

      iter #  21 total cpu time : 24615.2 secs   av.it.:  15.0
      thresh= 3.040E-09 alpha_mix =  0.700 |ddv_scf|^2 =  8.659E-16

      iter #  22 total cpu time : 24753.7 secs   av.it.:  14.9
      thresh= 2.943E-09 alpha_mix =  0.700 |ddv_scf|^2 =  1.717E-15

      iter #  23 total cpu time : 24897.3 secs   av.it.:  15.0
      thresh= 4.143E-09 alpha_mix =  0.700 |ddv_scf|^2 =  4.857E-15

      iter #  24 total cpu time : 25033.8 secs   av.it.:  14.0
      thresh= 6.969E-09 alpha_mix =  0.700 |ddv_scf|^2 =  2.985E-16

      iter #  25 total cpu time : 25178.8 secs   av.it.:  15.0
      thresh= 1.728E-09 alpha_mix =  0.700 |ddv_scf|^2 =  1.047E-16

      iter #  26 total cpu time : 25321.4 secs   av.it.:  15.3
      thresh= 1.023E-09 alpha_mix =  0.700 |ddv_scf|^2 =  2.647E-17

     End of self-consistent calculation

     Convergence has been achieved 


     Representation #  49 mode #  49

     Self-consistent Calculation

      iter #   1 total cpu time : 25446.7 secs   av.it.:   7.0
      thresh= 1.000E-02 alpha_mix =  0.700 |ddv_scf|^2 =  1.011E-06

      iter #   2 total cpu time : 25596.8 secs   av.it.:  17.0
      thresh= 1.006E-04 alpha_mix =  0.700 |ddv_scf|^2 =  6.673E-05

      iter #   3 total cpu time : 25731.8 secs   av.it.:  13.0
      thresh= 8.169E-04 alpha_mix =  0.700 |ddv_scf|^2 =  1.473E-06

      iter #   4 total cpu time : 25879.5 secs   av.it.:  14.9
      thresh= 1.214E-04 alpha_mix =  0.700 |ddv_scf|^2 =  6.488E-07

      iter #   5 total cpu time : 26016.8 secs   av.it.:  13.0
      thresh= 8.055E-05 alpha_mix =  0.700 |ddv_scf|^2 =  9.374E-08

      iter #   6 total cpu time : 26156.6 secs   av.it.:  15.0
      thresh= 3.062E-05 alpha_mix =  0.700 |ddv_scf|^2 =  2.223E-08

      iter #   7 total cpu time : 26294.7 secs   av.it.:  14.9
      thresh= 1.491E-05 alpha_mix =  0.700 |ddv_scf|^2 =  2.126E-09

      iter #   8 total cpu time : 26434.4 secs   av.it.:  14.9
      thresh= 4.611E-06 alpha_mix =  0.700 |ddv_scf|^2 =  2.974E-11

      iter #   9 total cpu time : 26586.3 secs   av.it.:  16.6
      thresh= 5.454E-07 alpha_mix =  0.700 |ddv_scf|^2 =  3.030E-11

      iter #  10 total cpu time : 26737.4 secs   av.it.:  16.0
      thresh= 5.505E-07 alpha_mix =  0.700 |ddv_scf|^2 =  1.195E-11

      iter #  11 total cpu time : 26881.2 secs   av.it.:  14.1
      thresh= 3.457E-07 alpha_mix =  0.700 |ddv_scf|^2 =  1.138E-12

      iter #  12 total cpu time : 27024.8 secs   av.it.:  15.6
      thresh= 1.067E-07 alpha_mix =  0.700 |ddv_scf|^2 =  6.823E-13

      iter #  13 total cpu time : 27174.5 secs   av.it.:  15.7
      thresh= 8.260E-08 alpha_mix =  0.700 |ddv_scf|^2 =  9.360E-13

      iter #  14 total cpu time : 27321.2 secs   av.it.:  15.9
      thresh= 9.674E-08 alpha_mix =  0.700 |ddv_scf|^2 =  2.916E-12

      iter #  15 total cpu time : 27458.5 secs   av.it.:  14.0
      thresh= 1.708E-07 alpha_mix =  0.700 |ddv_scf|^2 =  2.234E-13

      iter #  16 total cpu time : 27607.8 secs   av.it.:  15.9
      thresh= 4.726E-08 alpha_mix =  0.700 |ddv_scf|^2 =  1.103E-12

      iter #  17 total cpu time : 27742.7 secs   av.it.:  14.0
      thresh= 1.050E-07 alpha_mix =  0.700 |ddv_scf|^2 =  4.980E-14

      iter #  18 total cpu time : 27893.1 secs   av.it.:  16.0
      thresh= 2.232E-08 alpha_mix =  0.700 |ddv_scf|^2 =  8.228E-14

      iter #  19 total cpu time : 28034.2 secs   av.it.:  14.8
      thresh= 2.868E-08 alpha_mix =  0.700 |ddv_scf|^2 =  8.733E-15

      iter #  20 total cpu time : 28170.5 secs   av.it.:  14.7
      thresh= 9.345E-09 alpha_mix =  0.700 |ddv_scf|^2 =  2.871E-15

      iter #  21 total cpu time : 28319.5 secs   av.it.:  16.0
      thresh= 5.358E-09 alpha_mix =  0.700 |ddv_scf|^2 =  1.608E-14

      iter #  22 total cpu time : 28461.8 secs   av.it.:  14.0
      thresh= 1.268E-08 alpha_mix =  0.700 |ddv_scf|^2 =  1.150E-16

      iter #  23 total cpu time : 28598.8 secs   av.it.:  15.2
      thresh= 1.073E-09 alpha_mix =  0.700 |ddv_scf|^2 =  1.713E-17

     End of self-consistent calculation

     Convergence has been achieved 


     Representation #  50 mode #  50

     Self-consistent Calculation

      iter #   1 total cpu time : 28716.3 secs   av.it.:   6.0
      thresh= 1.000E-02 alpha_mix =  0.700 |ddv_scf|^2 =  1.433E-07

      iter #   2 total cpu time : 28870.5 secs   av.it.:  17.4
      thresh= 3.785E-05 alpha_mix =  0.700 |ddv_scf|^2 =  3.565E-06

      iter #   3 total cpu time : 29006.8 secs   av.it.:  14.0
      thresh= 1.888E-04 alpha_mix =  0.700 |ddv_scf|^2 =  1.041E-06

      iter #   4 total cpu time : 29141.9 secs   av.it.:  14.0
      thresh= 1.020E-04 alpha_mix =  0.700 |ddv_scf|^2 =  4.042E-09

      iter #   5 total cpu time : 29293.3 secs   av.it.:  16.7
      thresh= 6.358E-06 alpha_mix =  0.700 |ddv_scf|^2 =  6.200E-09

      iter #   6 total cpu time : 29430.4 secs   av.it.:  14.0
      thresh= 7.874E-06 alpha_mix =  0.700 |ddv_scf|^2 =  2.527E-09

      iter #   7 total cpu time : 29572.5 secs   av.it.:  15.0
      thresh= 5.027E-06 alpha_mix =  0.700 |ddv_scf|^2 =  2.059E-10

      iter #   8 total cpu time : 29717.9 secs   av.it.:  15.9
      thresh= 1.435E-06 alpha_mix =  0.700 |ddv_scf|^2 =  5.686E-11

      iter #   9 total cpu time : 29858.6 secs   av.it.:  14.0
      thresh= 7.540E-07 alpha_mix =  0.700 |ddv_scf|^2 =  5.594E-12

      iter #  10 total cpu time : 30007.4 secs   av.it.:  16.7
      thresh= 2.365E-07 alpha_mix =  0.700 |ddv_scf|^2 =  1.591E-11

      iter #  11 total cpu time : 30148.4 secs   av.it.:  14.9
      thresh= 3.989E-07 alpha_mix =  0.700 |ddv_scf|^2 =  4.061E-12

      iter #  12 total cpu time : 30282.7 secs   av.it.:  14.2
      thresh= 2.015E-07 alpha_mix =  0.700 |ddv_scf|^2 =  4.603E-13

      iter #  13 total cpu time : 30424.1 secs   av.it.:  15.8
      thresh= 6.784E-08 alpha_mix =  0.700 |ddv_scf|^2 =  1.749E-13

      iter #  14 total cpu time : 30563.5 secs   av.it.:  15.2
      thresh= 4.182E-08 alpha_mix =  0.700 |ddv_scf|^2 =  7.276E-14

      iter #  15 total cpu time : 30703.4 secs   av.it.:  15.0
      thresh= 2.697E-08 alpha_mix =  0.700 |ddv_scf|^2 =  7.854E-15

      iter #  16 total cpu time : 30847.4 secs   av.it.:  15.0
      thresh= 8.862E-09 alpha_mix =  0.700 |ddv_scf|^2 =  6.292E-16

      iter #  17 total cpu time : 30998.4 secs   av.it.:  16.0
      thresh= 2.508E-09 alpha_mix =  0.700 |ddv_scf|^2 =  1.662E-15

      iter #  18 total cpu time : 31137.3 secs   av.it.:  14.7
      thresh= 4.076E-09 alpha_mix =  0.700 |ddv_scf|^2 =  2.434E-16

      iter #  19 total cpu time : 31282.9 secs   av.it.:  15.5
      thresh= 1.560E-09 alpha_mix =  0.700 |ddv_scf|^2 =  6.497E-17

     End of self-consistent calculation

     Convergence has been achieved 


     Representation #  51 mode #  51

     Self-consistent Calculation

      iter #   1 total cpu time : 31395.7 secs   av.it.:   6.2
      thresh= 1.000E-02 alpha_mix =  0.700 |ddv_scf|^2 =  1.379E-06

      iter #   2 total cpu time : 31549.3 secs   av.it.:  17.0
      thresh= 1.174E-04 alpha_mix =  0.700 |ddv_scf|^2 =  1.058E-04

      iter #   3 total cpu time : 31683.6 secs   av.it.:  13.2
      thresh= 1.029E-03 alpha_mix =  0.700 |ddv_scf|^2 =  1.250E-06

      iter #   4 total cpu time : 31821.0 secs   av.it.:  14.1
      thresh= 1.118E-04 alpha_mix =  0.700 |ddv_scf|^2 =  5.747E-07

      iter #   5 total cpu time : 31957.2 secs   av.it.:  14.0
      thresh= 7.581E-05 alpha_mix =  0.700 |ddv_scf|^2 =  2.199E-07

      iter #   6 total cpu time : 32097.3 secs   av.it.:  14.2
      thresh= 4.690E-05 alpha_mix =  0.700 |ddv_scf|^2 =  1.062E-08

      iter #   7 total cpu time : 32238.9 secs   av.it.:  15.0
      thresh= 1.031E-05 alpha_mix =  0.700 |ddv_scf|^2 =  4.088E-09

      iter #   8 total cpu time : 32373.9 secs   av.it.:  14.8
      thresh= 6.394E-06 alpha_mix =  0.700 |ddv_scf|^2 =  6.620E-11

      iter #   9 total cpu time : 32516.9 secs   av.it.:  16.0
      thresh= 8.136E-07 alpha_mix =  0.700 |ddv_scf|^2 =  4.101E-11

      iter #  10 total cpu time : 32662.3 secs   av.it.:  15.8
      thresh= 6.404E-07 alpha_mix =  0.700 |ddv_scf|^2 =  1.291E-11

      iter #  11 total cpu time : 32802.4 secs   av.it.:  15.7
      thresh= 3.593E-07 alpha_mix =  0.700 |ddv_scf|^2 =  5.322E-12

      iter #  12 total cpu time : 32945.5 secs   av.it.:  14.9
      thresh= 2.307E-07 alpha_mix =  0.700 |ddv_scf|^2 =  1.212E-11

      iter #  13 total cpu time : 33080.8 secs   av.it.:  14.2
      thresh= 3.482E-07 alpha_mix =  0.700 |ddv_scf|^2 =  2.193E-12

      iter #  14 total cpu time : 33227.7 secs   av.it.:  15.0
      thresh= 1.481E-07 alpha_mix =  0.700 |ddv_scf|^2 =  4.305E-12

      iter #  15 total cpu time : 33371.1 secs   av.it.:  14.9
      thresh= 2.075E-07 alpha_mix =  0.700 |ddv_scf|^2 =  1.673E-12

      iter #  16 total cpu time : 33509.1 secs   av.it.:  14.2
      thresh= 1.293E-07 alpha_mix =  0.700 |ddv_scf|^2 =  1.666E-13

      iter #  17 total cpu time : 33660.3 secs   av.it.:  15.9
      thresh= 4.081E-08 alpha_mix =  0.700 |ddv_scf|^2 =  3.100E-14

      iter #  18 total cpu time : 33807.9 secs   av.it.:  16.0
      thresh= 1.761E-08 alpha_mix =  0.700 |ddv_scf|^2 =  9.142E-14

      iter #  19 total cpu time : 33948.4 secs   av.it.:  15.0
      thresh= 3.024E-08 alpha_mix =  0.700 |ddv_scf|^2 =  6.700E-15

      iter #  20 total cpu time : 34097.2 secs   av.it.:  16.0
      thresh= 8.186E-09 alpha_mix =  0.700 |ddv_scf|^2 =  8.294E-15

      iter #  21 total cpu time : 34229.9 secs   av.it.:  13.3
      thresh= 9.107E-09 alpha_mix =  0.700 |ddv_scf|^2 =  8.343E-16

      iter #  22 total cpu time : 34380.6 secs   av.it.:  16.4
      thresh= 2.888E-09 alpha_mix =  0.700 |ddv_scf|^2 =  1.434E-15

      iter #  23 total cpu time : 34522.8 secs   av.it.:  15.0
      thresh= 3.786E-09 alpha_mix =  0.700 |ddv_scf|^2 =  4.023E-16

      iter #  24 total cpu time : 34658.0 secs   av.it.:  15.0
      thresh= 2.006E-09 alpha_mix =  0.700 |ddv_scf|^2 =  3.092E-17

     End of self-consistent calculation

     Convergence has been achieved 


     Representation #  52 mode #  52

     Self-consistent Calculation

      iter #   1 total cpu time : 34774.9 secs   av.it.:   6.8
      thresh= 1.000E-02 alpha_mix =  0.700 |ddv_scf|^2 =  4.409E-07

      iter #   2 total cpu time : 34927.7 secs   av.it.:  17.7
      thresh= 6.640E-05 alpha_mix =  0.700 |ddv_scf|^2 =  3.709E-05

      iter #   3 total cpu time : 35062.4 secs   av.it.:  13.0
      thresh= 6.090E-04 alpha_mix =  0.700 |ddv_scf|^2 =  2.639E-07

      iter #   4 total cpu time : 35209.6 secs   av.it.:  15.9
      thresh= 5.137E-05 alpha_mix =  0.700 |ddv_scf|^2 =  7.117E-07

      iter #   5 total cpu time : 35343.5 secs   av.it.:  13.0
      thresh= 8.436E-05 alpha_mix =  0.700 |ddv_scf|^2 =  2.355E-08

      iter #   6 total cpu time : 35488.4 secs   av.it.:  15.6
      thresh= 1.534E-05 alpha_mix =  0.700 |ddv_scf|^2 =  2.945E-09

      iter #   7 total cpu time : 35636.2 secs   av.it.:  16.0
      thresh= 5.427E-06 alpha_mix =  0.700 |ddv_scf|^2 =  2.430E-09

      iter #   8 total cpu time : 35776.3 secs   av.it.:  15.0
      thresh= 4.929E-06 alpha_mix =  0.700 |ddv_scf|^2 =  3.769E-10

      iter #   9 total cpu time : 35916.7 secs   av.it.:  14.6
      thresh= 1.941E-06 alpha_mix =  0.700 |ddv_scf|^2 =  9.735E-11

      iter #  10 total cpu time : 36062.1 secs   av.it.:  15.4
      thresh= 9.866E-07 alpha_mix =  0.700 |ddv_scf|^2 =  3.418E-11

      iter #  11 total cpu time : 36205.2 secs   av.it.:  16.0
      thresh= 5.847E-07 alpha_mix =  0.700 |ddv_scf|^2 =  6.879E-11

      iter #  12 total cpu time : 36336.3 secs   av.it.:  14.8
      thresh= 8.294E-07 alpha_mix =  0.700 |ddv_scf|^2 =  1.547E-11

      iter #  13 total cpu time : 36479.7 secs   av.it.:  15.0
      thresh= 3.934E-07 alpha_mix =  0.700 |ddv_scf|^2 =  2.672E-12

      iter #  14 total cpu time : 36623.7 secs   av.it.:  15.0
      thresh= 1.635E-07 alpha_mix =  0.700 |ddv_scf|^2 =  4.563E-13

      iter #  15 total cpu time : 36767.3 secs   av.it.:  15.1
      thresh= 6.755E-08 alpha_mix =  0.700 |ddv_scf|^2 =  5.022E-13

      iter #  16 total cpu time : 36907.4 secs   av.it.:  14.0
      thresh= 7.087E-08 alpha_mix =  0.700 |ddv_scf|^2 =  2.160E-14

      iter #  17 total cpu time : 37052.2 secs   av.it.:  15.0
      thresh= 1.470E-08 alpha_mix =  0.700 |ddv_scf|^2 =  2.102E-15

      iter #  18 total cpu time : 37200.8 secs   av.it.:  16.0
      thresh= 4.585E-09 alpha_mix =  0.700 |ddv_scf|^2 =  1.569E-15

      iter #  19 total cpu time : 37350.2 secs   av.it.:  15.0
      thresh= 3.962E-09 alpha_mix =  0.700 |ddv_scf|^2 =  3.062E-16

      iter #  20 total cpu time : 37501.6 secs   av.it.:  16.0
      thresh= 1.750E-09 alpha_mix =  0.700 |ddv_scf|^2 =  1.379E-15

      iter #  21 total cpu time : 37640.7 secs   av.it.:  13.9
      thresh= 3.713E-09 alpha_mix =  0.700 |ddv_scf|^2 =  1.664E-16

      iter #  22 total cpu time : 37786.1 secs   av.it.:  16.0
      thresh= 1.290E-09 alpha_mix =  0.700 |ddv_scf|^2 =  1.587E-15

      iter #  23 total cpu time : 37913.5 secs   av.it.:  13.9
      thresh= 3.984E-09 alpha_mix =  0.700 |ddv_scf|^2 =  8.387E-17

     End of self-consistent calculation

     Convergence has been achieved 


     Representation #  53 mode #  53

     Self-consistent Calculation

      iter #   1 total cpu time : 38029.4 secs   av.it.:   7.0
      thresh= 1.000E-02 alpha_mix =  0.700 |ddv_scf|^2 =  4.325E-07

      iter #   2 total cpu time : 38186.9 secs   av.it.:  17.2
      thresh= 6.576E-05 alpha_mix =  0.700 |ddv_scf|^2 =  2.293E-05

      iter #   3 total cpu time : 38323.8 secs   av.it.:  13.2
      thresh= 4.789E-04 alpha_mix =  0.700 |ddv_scf|^2 =  9.817E-07

      iter #   4 total cpu time : 38462.4 secs   av.it.:  15.0
      thresh= 9.908E-05 alpha_mix =  0.700 |ddv_scf|^2 =  2.888E-07

      iter #   5 total cpu time : 38600.7 secs   av.it.:  14.0
      thresh= 5.374E-05 alpha_mix =  0.700 |ddv_scf|^2 =  8.619E-08

      iter #   6 total cpu time : 38739.8 secs   av.it.:  14.8
      thresh= 2.936E-05 alpha_mix =  0.700 |ddv_scf|^2 =  6.610E-09

      iter #   7 total cpu time : 38891.7 secs   av.it.:  15.9
      thresh= 8.130E-06 alpha_mix =  0.700 |ddv_scf|^2 =  7.746E-09

      iter #   8 total cpu time : 39028.7 secs   av.it.:  14.0
      thresh= 8.801E-06 alpha_mix =  0.700 |ddv_scf|^2 =  9.770E-11

      iter #   9 total cpu time : 39173.6 secs   av.it.:  15.5
      thresh= 9.885E-07 alpha_mix =  0.700 |ddv_scf|^2 =  2.694E-12

      iter #  10 total cpu time : 39324.7 secs   av.it.:  16.9
      thresh= 1.641E-07 alpha_mix =  0.700 |ddv_scf|^2 =  2.612E-12

      iter #  11 total cpu time : 39468.5 secs   av.it.:  15.9
      thresh= 1.616E-07 alpha_mix =  0.700 |ddv_scf|^2 =  4.392E-12

      iter #  12 total cpu time : 39603.2 secs   av.it.:  14.0
      thresh= 2.096E-07 alpha_mix =  0.700 |ddv_scf|^2 =  4.485E-13

      iter #  13 total cpu time : 39750.1 secs   av.it.:  16.0
      thresh= 6.697E-08 alpha_mix =  0.700 |ddv_scf|^2 =  3.080E-12

      iter #  14 total cpu time : 39879.6 secs   av.it.:  13.1
      thresh= 1.755E-07 alpha_mix =  0.700 |ddv_scf|^2 =  1.578E-13

      iter #  15 total cpu time : 40021.9 secs   av.it.:  15.7
      thresh= 3.972E-08 alpha_mix =  0.700 |ddv_scf|^2 =  1.449E-13

      iter #  16 total cpu time : 40160.6 secs   av.it.:  15.0
      thresh= 3.807E-08 alpha_mix =  0.700 |ddv_scf|^2 =  2.251E-14

      iter #  17 total cpu time : 40302.6 secs   av.it.:  15.0
      thresh= 1.500E-08 alpha_mix =  0.700 |ddv_scf|^2 =  1.528E-15

      iter #  18 total cpu time : 40446.7 secs   av.it.:  16.0
      thresh= 3.909E-09 alpha_mix =  0.700 |ddv_scf|^2 =  2.376E-15

      iter #  19 total cpu time : 40579.3 secs   av.it.:  14.8
      thresh= 4.874E-09 alpha_mix =  0.700 |ddv_scf|^2 =  8.086E-17

     End of self-consistent calculation

     Convergence has been achieved 


     Representation #  54 mode #  54

     Self-consistent Calculation

      iter #   1 total cpu time : 40696.5 secs   av.it.:   6.0
      thresh= 1.000E-02 alpha_mix =  0.700 |ddv_scf|^2 =  4.417E-07

      iter #   2 total cpu time : 40853.4 secs   av.it.:  17.1
      thresh= 6.646E-05 alpha_mix =  0.700 |ddv_scf|^2 =  2.495E-05

      iter #   3 total cpu time : 40989.2 secs   av.it.:  13.3
      thresh= 4.995E-04 alpha_mix =  0.700 |ddv_scf|^2 =  1.203E-06

      iter #   4 total cpu time : 41129.4 secs   av.it.:  14.9
      thresh= 1.097E-04 alpha_mix =  0.700 |ddv_scf|^2 =  3.087E-07

      iter #   5 total cpu time : 41259.6 secs   av.it.:  13.0
      thresh= 5.557E-05 alpha_mix =  0.700 |ddv_scf|^2 =  8.786E-09

      iter #   6 total cpu time : 41411.2 secs   av.it.:  16.8
      thresh= 9.373E-06 alpha_mix =  0.700 |ddv_scf|^2 =  2.157E-08

      iter #   7 total cpu time : 41550.0 secs   av.it.:  14.9
      thresh= 1.469E-05 alpha_mix =  0.700 |ddv_scf|^2 =  7.037E-09

      iter #   8 total cpu time : 41688.6 secs   av.it.:  14.2
      thresh= 8.389E-06 alpha_mix =  0.700 |ddv_scf|^2 =  2.648E-10

      iter #   9 total cpu time : 41828.0 secs   av.it.:  14.8
      thresh= 1.627E-06 alpha_mix =  0.700 |ddv_scf|^2 =  1.893E-11

      iter #  10 total cpu time : 41976.6 secs   av.it.:  16.5
      thresh= 4.351E-07 alpha_mix =  0.700 |ddv_scf|^2 =  5.880E-11

      iter #  11 total cpu time : 42118.1 secs   av.it.:  15.0
      thresh= 7.668E-07 alpha_mix =  0.700 |ddv_scf|^2 =  1.710E-11

      iter #  12 total cpu time : 42260.0 secs   av.it.:  15.1
      thresh= 4.135E-07 alpha_mix =  0.700 |ddv_scf|^2 =  8.267E-12

      iter #  13 total cpu time : 42402.6 secs   av.it.:  14.8
      thresh= 2.875E-07 alpha_mix =  0.700 |ddv_scf|^2 =  6.895E-13

      iter #  14 total cpu time : 42543.3 secs   av.it.:  15.0
      thresh= 8.304E-08 alpha_mix =  0.700 |ddv_scf|^2 =  4.034E-13

      iter #  15 total cpu time : 42682.0 secs   av.it.:  14.0
      thresh= 6.352E-08 alpha_mix =  0.700 |ddv_scf|^2 =  1.171E-13

      iter #  16 total cpu time : 42818.5 secs   av.it.:  14.0
      thresh= 3.422E-08 alpha_mix =  0.700 |ddv_scf|^2 =  6.745E-15

      iter #  17 total cpu time : 42965.7 secs   av.it.:  14.9
      thresh= 8.213E-09 alpha_mix =  0.700 |ddv_scf|^2 =  1.189E-15

      iter #  18 total cpu time : 43106.8 secs   av.it.:  15.0
      thresh= 3.448E-09 alpha_mix =  0.700 |ddv_scf|^2 =  1.726E-16

      iter #  19 total cpu time : 43248.9 secs   av.it.:  16.0
      thresh= 1.314E-09 alpha_mix =  0.700 |ddv_scf|^2 =  1.951E-17

     End of self-consistent calculation

     Convergence has been achieved 


     Representation #  55 mode #  55

     Self-consistent Calculation

      iter #   1 total cpu time : 43366.0 secs   av.it.:   6.1
      thresh= 1.000E-02 alpha_mix =  0.700 |ddv_scf|^2 =  5.080E-07

      iter #   2 total cpu time : 43524.1 secs   av.it.:  17.5
      thresh= 7.128E-05 alpha_mix =  0.700 |ddv_scf|^2 =  3.949E-05

      iter #   3 total cpu time : 43660.9 secs   av.it.:  13.1
      thresh= 6.284E-04 alpha_mix =  0.700 |ddv_scf|^2 =  4.287E-07

      iter #   4 total cpu time : 43803.6 secs   av.it.:  15.0
      thresh= 6.548E-05 alpha_mix =  0.700 |ddv_scf|^2 =  7.033E-07

      iter #   5 total cpu time : 43943.0 secs   av.it.:  13.9
      thresh= 8.386E-05 alpha_mix =  0.700 |ddv_scf|^2 =  2.782E-08

      iter #   6 total cpu time : 44088.1 secs   av.it.:  15.0
      thresh= 1.668E-05 alpha_mix =  0.700 |ddv_scf|^2 =  3.185E-09

      iter #   7 total cpu time : 44236.5 secs   av.it.:  15.5
      thresh= 5.643E-06 alpha_mix =  0.700 |ddv_scf|^2 =  5.515E-10

      iter #   8 total cpu time : 44381.0 secs   av.it.:  15.7
      thresh= 2.348E-06 alpha_mix =  0.700 |ddv_scf|^2 =  5.846E-11

      iter #   9 total cpu time : 44530.1 secs   av.it.:  15.2
      thresh= 7.646E-07 alpha_mix =  0.700 |ddv_scf|^2 =  2.597E-11

      iter #  10 total cpu time : 44670.7 secs   av.it.:  15.0
      thresh= 5.096E-07 alpha_mix =  0.700 |ddv_scf|^2 =  5.187E-12

      iter #  11 total cpu time : 44828.5 secs   av.it.:  15.1
      thresh= 2.277E-07 alpha_mix =  0.700 |ddv_scf|^2 =  8.277E-13

      iter #  12 total cpu time : 44979.7 secs   av.it.:  15.0
      thresh= 9.098E-08 alpha_mix =  0.700 |ddv_scf|^2 =  1.227E-13

      iter #  13 total cpu time : 45134.7 secs   av.it.:  16.0
      thresh= 3.503E-08 alpha_mix =  0.700 |ddv_scf|^2 =  1.223E-12

      iter #  14 total cpu time : 45279.6 secs   av.it.:  14.1
      thresh= 1.106E-07 alpha_mix =  0.700 |ddv_scf|^2 =  7.346E-14

      iter #  15 total cpu time : 45423.7 secs   av.it.:  14.8
      thresh= 2.710E-08 alpha_mix =  0.700 |ddv_scf|^2 =  1.107E-14

      iter #  16 total cpu time : 45576.5 secs   av.it.:  15.0
      thresh= 1.052E-08 alpha_mix =  0.700 |ddv_scf|^2 =  1.945E-15

      iter #  17 total cpu time : 45720.3 secs   av.it.:  15.0
      thresh= 4.410E-09 alpha_mix =  0.700 |ddv_scf|^2 =  1.408E-16

      iter #  18 total cpu time : 45869.5 secs   av.it.:  16.5
      thresh= 1.187E-09 alpha_mix =  0.700 |ddv_scf|^2 =  1.877E-17

     End of self-consistent calculation

     Convergence has been achieved 


     Representation #  56 mode #  56

     Self-consistent Calculation

      iter #   1 total cpu time : 45989.3 secs   av.it.:   6.6
      thresh= 1.000E-02 alpha_mix =  0.700 |ddv_scf|^2 =  9.389E-07

      iter #   2 total cpu time : 46151.3 secs   av.it.:  17.0
      thresh= 9.690E-05 alpha_mix =  0.700 |ddv_scf|^2 =  7.584E-05

      iter #   3 total cpu time : 46294.9 secs   av.it.:  13.2
      thresh= 8.709E-04 alpha_mix =  0.700 |ddv_scf|^2 =  5.400E-07

      iter #   4 total cpu time : 46435.8 secs   av.it.:  14.4
      thresh= 7.348E-05 alpha_mix =  0.700 |ddv_scf|^2 =  4.868E-07

      iter #   5 total cpu time : 46586.0 secs   av.it.:  14.0
      thresh= 6.977E-05 alpha_mix =  0.700 |ddv_scf|^2 =  6.642E-08

      iter #   6 total cpu time : 46736.6 secs   av.it.:  14.7
      thresh= 2.577E-05 alpha_mix =  0.700 |ddv_scf|^2 =  3.997E-09

      iter #   7 total cpu time : 46886.5 secs   av.it.:  15.6
      thresh= 6.322E-06 alpha_mix =  0.700 |ddv_scf|^2 =  1.534E-09

      iter #   8 total cpu time : 47028.6 secs   av.it.:  14.2
      thresh= 3.916E-06 alpha_mix =  0.700 |ddv_scf|^2 =  7.244E-11

      iter #   9 total cpu time : 47171.2 secs   av.it.:  15.8
      thresh= 8.511E-07 alpha_mix =  0.700 |ddv_scf|^2 =  4.749E-11

      iter #  10 total cpu time : 47312.7 secs   av.it.:  15.8
      thresh= 6.891E-07 alpha_mix =  0.700 |ddv_scf|^2 =  9.436E-12

      iter #  11 total cpu time : 47456.0 secs   av.it.:  15.1
      thresh= 3.072E-07 alpha_mix =  0.700 |ddv_scf|^2 =  1.509E-12

      iter #  12 total cpu time : 47600.5 secs   av.it.:  15.6
      thresh= 1.229E-07 alpha_mix =  0.700 |ddv_scf|^2 =  2.159E-13

      iter #  13 total cpu time : 47758.7 secs   av.it.:  16.9
      thresh= 4.646E-08 alpha_mix =  0.700 |ddv_scf|^2 =  1.719E-12

      iter #  14 total cpu time : 47900.3 secs   av.it.:  14.3
      thresh= 1.311E-07 alpha_mix =  0.700 |ddv_scf|^2 =  7.732E-14

      iter #  15 total cpu time : 48045.0 secs   av.it.:  16.0
      thresh= 2.781E-08 alpha_mix =  0.700 |ddv_scf|^2 =  5.919E-14

      iter #  16 total cpu time : 48177.8 secs   av.it.:  14.0
      thresh= 2.433E-08 alpha_mix =  0.700 |ddv_scf|^2 =  7.587E-15

      iter #  17 total cpu time : 48327.5 secs   av.it.:  16.9
      thresh= 8.710E-09 alpha_mix =  0.700 |ddv_scf|^2 =  4.009E-14

      iter #  18 total cpu time : 48474.4 secs   av.it.:  14.5
      thresh= 2.002E-08 alpha_mix =  0.700 |ddv_scf|^2 =  2.766E-14

      iter #  19 total cpu time : 48610.2 secs   av.it.:  14.0
      thresh= 1.663E-08 alpha_mix =  0.700 |ddv_scf|^2 =  2.198E-16

      iter #  20 total cpu time : 48763.4 secs   av.it.:  16.9
      thresh= 1.482E-09 alpha_mix =  0.700 |ddv_scf|^2 =  6.936E-16

      iter #  21 total cpu time : 48910.2 secs   av.it.:  15.1
      thresh= 2.634E-09 alpha_mix =  0.700 |ddv_scf|^2 =  5.024E-16

      iter #  22 total cpu time : 49043.5 secs   av.it.:  14.8
      thresh= 2.241E-09 alpha_mix =  0.700 |ddv_scf|^2 =  1.283E-16

      iter #  23 total cpu time : 49181.6 secs   av.it.:  15.5
      thresh= 1.133E-09 alpha_mix =  0.700 |ddv_scf|^2 =  1.086E-16

      iter #  24 total cpu time : 49311.9 secs   av.it.:  14.8
      thresh= 1.042E-09 alpha_mix =  0.700 |ddv_scf|^2 =  5.533E-18

     End of self-consistent calculation

     Convergence has been achieved 


     Representation #  57 mode #  57

     Self-consistent Calculation

      iter #   1 total cpu time : 49425.1 secs   av.it.:   6.2
      thresh= 1.000E-02 alpha_mix =  0.700 |ddv_scf|^2 =  3.811E-07

      iter #   2 total cpu time : 49566.9 secs   av.it.:  17.1
      thresh= 6.173E-05 alpha_mix =  0.700 |ddv_scf|^2 =  3.008E-05

      iter #   3 total cpu time : 49692.1 secs   av.it.:  13.0
      thresh= 5.485E-04 alpha_mix =  0.700 |ddv_scf|^2 =  3.578E-07

      iter #   4 total cpu time : 49825.1 secs   av.it.:  15.0
      thresh= 5.982E-05 alpha_mix =  0.700 |ddv_scf|^2 =  3.075E-07

      iter #   5 total cpu time : 49953.9 secs   av.it.:  13.7
      thresh= 5.545E-05 alpha_mix =  0.700 |ddv_scf|^2 =  6.341E-09

      iter #   6 total cpu time : 50095.5 secs   av.it.:  15.8
      thresh= 7.963E-06 alpha_mix =  0.700 |ddv_scf|^2 =  2.873E-09

      iter #   7 total cpu time : 50228.9 secs   av.it.:  15.0
      thresh= 5.360E-06 alpha_mix =  0.700 |ddv_scf|^2 =  8.362E-10

      iter #   8 total cpu time : 50360.0 secs   av.it.:  14.8
      thresh= 2.892E-06 alpha_mix =  0.700 |ddv_scf|^2 =  5.609E-11

      iter #   9 total cpu time : 50496.3 secs   av.it.:  15.0
      thresh= 7.489E-07 alpha_mix =  0.700 |ddv_scf|^2 =  6.709E-12

      iter #  10 total cpu time : 50632.7 secs   av.it.:  16.0
      thresh= 2.590E-07 alpha_mix =  0.700 |ddv_scf|^2 =  6.913E-12

      iter #  11 total cpu time : 50767.6 secs   av.it.:  15.0
      thresh= 2.629E-07 alpha_mix =  0.700 |ddv_scf|^2 =  9.167E-12

      iter #  12 total cpu time : 50897.8 secs   av.it.:  14.1
      thresh= 3.028E-07 alpha_mix =  0.700 |ddv_scf|^2 =  6.059E-13

      iter #  13 total cpu time : 51034.4 secs   av.it.:  15.9
      thresh= 7.784E-08 alpha_mix =  0.700 |ddv_scf|^2 =  1.435E-13

      iter #  14 total cpu time : 51170.3 secs   av.it.:  15.8
      thresh= 3.788E-08 alpha_mix =  0.700 |ddv_scf|^2 =  1.892E-14

      iter #  15 total cpu time : 51307.9 secs   av.it.:  16.8
      thresh= 1.375E-08 alpha_mix =  0.700 |ddv_scf|^2 =  1.267E-13

      iter #  16 total cpu time : 51437.1 secs   av.it.:  14.0
      thresh= 3.559E-08 alpha_mix =  0.700 |ddv_scf|^2 =  8.437E-15

      iter #  17 total cpu time : 51567.8 secs   av.it.:  15.0
      thresh= 9.185E-09 alpha_mix =  0.700 |ddv_scf|^2 =  1.693E-15

      iter #  18 total cpu time : 51702.8 secs   av.it.:  16.0
      thresh= 4.114E-09 alpha_mix =  0.700 |ddv_scf|^2 =  1.482E-15

      iter #  19 total cpu time : 51836.6 secs   av.it.:  15.9
      thresh= 3.849E-09 alpha_mix =  0.700 |ddv_scf|^2 =  5.081E-15

      iter #  20 total cpu time : 51959.2 secs   av.it.:  14.6
      thresh= 7.128E-09 alpha_mix =  0.700 |ddv_scf|^2 =  3.032E-15

      iter #  21 total cpu time : 52082.7 secs   av.it.:  14.0
      thresh= 5.506E-09 alpha_mix =  0.700 |ddv_scf|^2 =  1.954E-16

      iter #  22 total cpu time : 52220.0 secs   av.it.:  16.6
      thresh= 1.398E-09 alpha_mix =  0.700 |ddv_scf|^2 =  1.172E-15

      iter #  23 total cpu time : 52344.6 secs   av.it.:  14.0
      thresh= 3.424E-09 alpha_mix =  0.700 |ddv_scf|^2 =  1.892E-16

      iter #  24 total cpu time : 52466.5 secs   av.it.:  14.5
      thresh= 1.375E-09 alpha_mix =  0.700 |ddv_scf|^2 =  1.131E-17

     End of self-consistent calculation

     Convergence has been achieved 


     Representation #  58 mode #  58

     Self-consistent Calculation

      iter #   1 total cpu time : 52567.7 secs   av.it.:   7.0
      thresh= 1.000E-02 alpha_mix =  0.700 |ddv_scf|^2 =  1.442E-06

      iter #   2 total cpu time : 52704.5 secs   av.it.:  17.1
      thresh= 1.201E-04 alpha_mix =  0.700 |ddv_scf|^2 =  1.236E-04

      iter #   3 total cpu time : 52823.8 secs   av.it.:  13.0
      thresh= 1.112E-03 alpha_mix =  0.700 |ddv_scf|^2 =  1.451E-06

      iter #   4 total cpu time : 52948.8 secs   av.it.:  14.2
      thresh= 1.205E-04 alpha_mix =  0.700 |ddv_scf|^2 =  8.899E-07

      iter #   5 total cpu time : 53074.9 secs   av.it.:  14.0
      thresh= 9.434E-05 alpha_mix =  0.700 |ddv_scf|^2 =  9.413E-08

      iter #   6 total cpu time : 53202.6 secs   av.it.:  15.0
      thresh= 3.068E-05 alpha_mix =  0.700 |ddv_scf|^2 =  8.069E-09

      iter #   7 total cpu time : 53336.8 secs   av.it.:  15.8
      thresh= 8.983E-06 alpha_mix =  0.700 |ddv_scf|^2 =  2.497E-09

      iter #   8 total cpu time : 53470.9 secs   av.it.:  15.0
      thresh= 4.997E-06 alpha_mix =  0.700 |ddv_scf|^2 =  3.734E-10

      iter #   9 total cpu time : 53601.0 secs   av.it.:  15.2
      thresh= 1.932E-06 alpha_mix =  0.700 |ddv_scf|^2 =  1.999E-10

      iter #  10 total cpu time : 53726.8 secs   av.it.:  14.1
      thresh= 1.414E-06 alpha_mix =  0.700 |ddv_scf|^2 =  4.619E-11

      iter #  11 total cpu time : 53854.3 secs   av.it.:  15.0
      thresh= 6.796E-07 alpha_mix =  0.700 |ddv_scf|^2 =  7.615E-12

      iter #  12 total cpu time : 53982.4 secs   av.it.:  15.0
      thresh= 2.759E-07 alpha_mix =  0.700 |ddv_scf|^2 =  8.871E-13

      iter #  13 total cpu time : 54108.6 secs   av.it.:  16.0
      thresh= 9.418E-08 alpha_mix =  0.700 |ddv_scf|^2 =  3.632E-13

      iter #  14 total cpu time : 54241.7 secs   av.it.:  16.0
      thresh= 6.027E-08 alpha_mix =  0.700 |ddv_scf|^2 =  5.843E-13

      iter #  15 total cpu time : 54369.5 secs   av.it.:  14.9
      thresh= 7.644E-08 alpha_mix =  0.700 |ddv_scf|^2 =  2.633E-14

      iter #  16 total cpu time : 54507.2 secs   av.it.:  17.0
      thresh= 1.623E-08 alpha_mix =  0.700 |ddv_scf|^2 =  6.144E-13

      iter #  17 total cpu time : 54629.7 secs   av.it.:  14.0
      thresh= 7.838E-08 alpha_mix =  0.700 |ddv_scf|^2 =  1.487E-13

      iter #  18 total cpu time : 54758.5 secs   av.it.:  14.6
      thresh= 3.856E-08 alpha_mix =  0.700 |ddv_scf|^2 =  7.033E-14

      iter #  19 total cpu time : 54891.9 secs   av.it.:  15.1
      thresh= 2.652E-08 alpha_mix =  0.700 |ddv_scf|^2 =  3.850E-14

      iter #  20 total cpu time : 55018.3 secs   av.it.:  14.8
      thresh= 1.962E-08 alpha_mix =  0.700 |ddv_scf|^2 =  2.683E-15

      iter #  21 total cpu time : 55160.4 secs   av.it.:  16.0
      thresh= 5.180E-09 alpha_mix =  0.700 |ddv_scf|^2 =  5.116E-15

      iter #  22 total cpu time : 55293.0 secs   av.it.:  15.2
      thresh= 7.153E-09 alpha_mix =  0.700 |ddv_scf|^2 =  1.961E-16

      iter #  23 total cpu time : 55433.6 secs   av.it.:  17.7
      thresh= 1.400E-09 alpha_mix =  0.700 |ddv_scf|^2 =  3.044E-15

      iter #  24 total cpu time : 55560.9 secs   av.it.:  14.8
      thresh= 5.517E-09 alpha_mix =  0.700 |ddv_scf|^2 =  4.782E-15

      iter #  25 total cpu time : 55684.1 secs   av.it.:  14.0
      thresh= 6.915E-09 alpha_mix =  0.700 |ddv_scf|^2 =  1.759E-16

      iter #  26 total cpu time : 55820.2 secs   av.it.:  16.0
      thresh= 1.326E-09 alpha_mix =  0.700 |ddv_scf|^2 =  2.003E-16

      iter #  27 total cpu time : 55950.1 secs   av.it.:  15.3
      thresh= 1.415E-09 alpha_mix =  0.700 |ddv_scf|^2 =  2.284E-16

      iter #  28 total cpu time : 56082.0 secs   av.it.:  15.2
      thresh= 1.511E-09 alpha_mix =  0.700 |ddv_scf|^2 =  1.513E-16

      iter #  29 total cpu time : 56215.1 secs   av.it.:  15.0
      thresh= 1.230E-09 alpha_mix =  0.700 |ddv_scf|^2 =  5.888E-16

      iter #  30 total cpu time : 56334.7 secs   av.it.:  14.1
      thresh= 2.427E-09 alpha_mix =  0.700 |ddv_scf|^2 =  8.735E-17

     End of self-consistent calculation

     Convergence has been achieved 


     Representation #  59 mode #  59

     Self-consistent Calculation

      iter #   1 total cpu time : 56440.5 secs   av.it.:   7.0
      thresh= 1.000E-02 alpha_mix =  0.700 |ddv_scf|^2 =  8.304E-07

      iter #   2 total cpu time : 56583.8 secs   av.it.:  17.3
      thresh= 9.112E-05 alpha_mix =  0.700 |ddv_scf|^2 =  4.520E-05

      iter #   3 total cpu time : 56710.8 secs   av.it.:  13.7
      thresh= 6.723E-04 alpha_mix =  0.700 |ddv_scf|^2 =  1.965E-06

      iter #   4 total cpu time : 56840.6 secs   av.it.:  14.8
      thresh= 1.402E-04 alpha_mix =  0.700 |ddv_scf|^2 =  2.238E-07

      iter #   5 total cpu time : 56964.2 secs   av.it.:  13.8
      thresh= 4.730E-05 alpha_mix =  0.700 |ddv_scf|^2 =  3.712E-08

      iter #   6 total cpu time : 57100.1 secs   av.it.:  15.9
      thresh= 1.927E-05 alpha_mix =  0.700 |ddv_scf|^2 =  3.501E-08

      iter #   7 total cpu time : 57225.7 secs   av.it.:  14.9
      thresh= 1.871E-05 alpha_mix =  0.700 |ddv_scf|^2 =  5.829E-09

      iter #   8 total cpu time : 57350.0 secs   av.it.:  15.0
      thresh= 7.635E-06 alpha_mix =  0.700 |ddv_scf|^2 =  5.102E-10

      iter #   9 total cpu time : 57477.3 secs   av.it.:  15.0
      thresh= 2.259E-06 alpha_mix =  0.700 |ddv_scf|^2 =  4.003E-11

      iter #  10 total cpu time : 57619.5 secs   av.it.:  17.0
      thresh= 6.327E-07 alpha_mix =  0.700 |ddv_scf|^2 =  1.178E-09

      iter #  11 total cpu time : 57739.7 secs   av.it.:  13.9
      thresh= 3.432E-06 alpha_mix =  0.700 |ddv_scf|^2 =  1.145E-11

      iter #  12 total cpu time : 57871.6 secs   av.it.:  15.7
      thresh= 3.384E-07 alpha_mix =  0.700 |ddv_scf|^2 =  1.903E-11

      iter #  13 total cpu time : 57994.6 secs   av.it.:  14.0
      thresh= 4.362E-07 alpha_mix =  0.700 |ddv_scf|^2 =  1.366E-12

      iter #  14 total cpu time : 58118.6 secs   av.it.:  15.0
      thresh= 1.169E-07 alpha_mix =  0.700 |ddv_scf|^2 =  1.549E-13

      iter #  15 total cpu time : 58243.4 secs   av.it.:  14.5
      thresh= 3.936E-08 alpha_mix =  0.700 |ddv_scf|^2 =  1.120E-14

      iter #  16 total cpu time : 58372.4 secs   av.it.:  16.0
      thresh= 1.058E-08 alpha_mix =  0.700 |ddv_scf|^2 =  1.919E-15

      iter #  17 total cpu time : 58499.0 secs   av.it.:  16.0
      thresh= 4.380E-09 alpha_mix =  0.700 |ddv_scf|^2 =  4.577E-15

      iter #  18 total cpu time : 58620.4 secs   av.it.:  14.0
      thresh= 6.765E-09 alpha_mix =  0.700 |ddv_scf|^2 =  1.634E-16

      iter #  19 total cpu time : 58745.1 secs   av.it.:  15.2
      thresh= 1.278E-09 alpha_mix =  0.700 |ddv_scf|^2 =  5.302E-17

     End of self-consistent calculation

     Convergence has been achieved 


     Representation #  60 mode #  60

     Self-consistent Calculation

      iter #   1 total cpu time : 58834.3 secs   av.it.:   6.0
      thresh= 1.000E-02 alpha_mix =  0.700 |ddv_scf|^2 =  1.964E-06

      iter #   2 total cpu time : 58967.8 secs   av.it.:  17.0
      thresh= 1.402E-04 alpha_mix =  0.700 |ddv_scf|^2 =  1.803E-04

      iter #   3 total cpu time : 59082.5 secs   av.it.:  13.0
      thresh= 1.343E-03 alpha_mix =  0.700 |ddv_scf|^2 =  1.060E-06

      iter #   4 total cpu time : 59201.7 secs   av.it.:  14.9
      thresh= 1.029E-04 alpha_mix =  0.700 |ddv_scf|^2 =  7.406E-07

      iter #   5 total cpu time : 59315.1 secs   av.it.:  14.0
      thresh= 8.606E-05 alpha_mix =  0.700 |ddv_scf|^2 =  1.492E-07

      iter #   6 total cpu time : 59436.5 secs   av.it.:  14.7
      thresh= 3.863E-05 alpha_mix =  0.700 |ddv_scf|^2 =  8.925E-09

      iter #   7 total cpu time : 59559.6 secs   av.it.:  15.4
      thresh= 9.447E-06 alpha_mix =  0.700 |ddv_scf|^2 =  7.551E-09

      iter #   8 total cpu time : 59678.9 secs   av.it.:  14.0
      thresh= 8.690E-06 alpha_mix =  0.700 |ddv_scf|^2 =  6.047E-11

      iter #   9 total cpu time : 59807.4 secs   av.it.:  16.0
      thresh= 7.776E-07 alpha_mix =  0.700 |ddv_scf|^2 =  4.788E-11

      iter #  10 total cpu time : 59929.1 secs   av.it.:  15.4
      thresh= 6.920E-07 alpha_mix =  0.700 |ddv_scf|^2 =  1.667E-11

      iter #  11 total cpu time : 60041.7 secs   av.it.:  14.0
      thresh= 4.083E-07 alpha_mix =  0.700 |ddv_scf|^2 =  2.158E-12

      iter #  12 total cpu time : 60168.6 secs   av.it.:  15.0
      thresh= 1.469E-07 alpha_mix =  0.700 |ddv_scf|^2 =  2.358E-13

      iter #  13 total cpu time : 60291.6 secs   av.it.:  15.8
      thresh= 4.856E-08 alpha_mix =  0.700 |ddv_scf|^2 =  1.754E-13

      iter #  14 total cpu time : 60415.9 secs   av.it.:  15.9
      thresh= 4.189E-08 alpha_mix =  0.700 |ddv_scf|^2 =  2.288E-13

      iter #  15 total cpu time : 60534.3 secs   av.it.:  14.0
      thresh= 4.783E-08 alpha_mix =  0.700 |ddv_scf|^2 =  3.276E-14

      iter #  16 total cpu time : 60654.5 secs   av.it.:  14.7
      thresh= 1.810E-08 alpha_mix =  0.700 |ddv_scf|^2 =  2.420E-15

      iter #  17 total cpu time : 60788.8 secs   av.it.:  17.6
      thresh= 4.919E-09 alpha_mix =  0.700 |ddv_scf|^2 =  2.950E-14

      iter #  18 total cpu time : 60905.7 secs   av.it.:  14.0
      thresh= 1.717E-08 alpha_mix =  0.700 |ddv_scf|^2 =  1.914E-15

      iter #  19 total cpu time : 61028.0 secs   av.it.:  15.0
      thresh= 4.375E-09 alpha_mix =  0.700 |ddv_scf|^2 =  1.400E-16

      iter #  20 total cpu time : 61157.4 secs   av.it.:  15.9
      thresh= 1.183E-09 alpha_mix =  0.700 |ddv_scf|^2 =  3.152E-16

      iter #  21 total cpu time : 61287.4 secs   av.it.:  15.8
      thresh= 1.775E-09 alpha_mix =  0.700 |ddv_scf|^2 =  4.760E-16

      iter #  22 total cpu time : 61406.4 secs   av.it.:  14.1
      thresh= 2.182E-09 alpha_mix =  0.700 |ddv_scf|^2 =  1.848E-17

     End of self-consistent calculation

     Convergence has been achieved 


     Representation #  61 mode #  61

     Self-consistent Calculation

      iter #   1 total cpu time : 61494.7 secs   av.it.:   6.8
      thresh= 1.000E-02 alpha_mix =  0.700 |ddv_scf|^2 =  1.689E-06

      iter #   2 total cpu time : 61628.6 secs   av.it.:  17.0
      thresh= 1.300E-04 alpha_mix =  0.700 |ddv_scf|^2 =  1.108E-04

      iter #   3 total cpu time : 61739.2 secs   av.it.:  13.0
      thresh= 1.053E-03 alpha_mix =  0.700 |ddv_scf|^2 =  2.861E-06

      iter #   4 total cpu time : 61854.8 secs   av.it.:  14.2
      thresh= 1.691E-04 alpha_mix =  0.700 |ddv_scf|^2 =  9.352E-07

      iter #   5 total cpu time : 61966.2 secs   av.it.:  13.3
      thresh= 9.671E-05 alpha_mix =  0.700 |ddv_scf|^2 =  1.433E-07

      iter #   6 total cpu time : 62084.5 secs   av.it.:  14.9
      thresh= 3.785E-05 alpha_mix =  0.700 |ddv_scf|^2 =  6.614E-09

      iter #   7 total cpu time : 62206.1 secs   av.it.:  15.6
      thresh= 8.133E-06 alpha_mix =  0.700 |ddv_scf|^2 =  2.703E-09

      iter #   8 total cpu time : 62330.0 secs   av.it.:  15.0
      thresh= 5.199E-06 alpha_mix =  0.700 |ddv_scf|^2 =  5.196E-10

      iter #   9 total cpu time : 62458.3 secs   av.it.:  15.9
      thresh= 2.279E-06 alpha_mix =  0.700 |ddv_scf|^2 =  6.921E-10

      iter #  10 total cpu time : 62579.3 secs   av.it.:  14.0
      thresh= 2.631E-06 alpha_mix =  0.700 |ddv_scf|^2 =  1.474E-10

      iter #  11 total cpu time : 62697.5 secs   av.it.:  14.9
      thresh= 1.214E-06 alpha_mix =  0.700 |ddv_scf|^2 =  3.553E-11

      iter #  12 total cpu time : 62820.2 secs   av.it.:  15.9
      thresh= 5.961E-07 alpha_mix =  0.700 |ddv_scf|^2 =  2.819E-11

      iter #  13 total cpu time : 62940.9 secs   av.it.:  15.0
      thresh= 5.310E-07 alpha_mix =  0.700 |ddv_scf|^2 =  3.858E-12

      iter #  14 total cpu time : 63066.3 secs   av.it.:  15.1
      thresh= 1.964E-07 alpha_mix =  0.700 |ddv_scf|^2 =  2.505E-12

      iter #  15 total cpu time : 63186.3 secs   av.it.:  14.0
      thresh= 1.583E-07 alpha_mix =  0.700 |ddv_scf|^2 =  1.329E-13

      iter #  16 total cpu time : 63308.8 secs   av.it.:  15.0
      thresh= 3.645E-08 alpha_mix =  0.700 |ddv_scf|^2 =  2.789E-14

      iter #  17 total cpu time : 63432.3 secs   av.it.:  15.0
      thresh= 1.670E-08 alpha_mix =  0.700 |ddv_scf|^2 =  4.008E-15

      iter #  18 total cpu time : 63560.3 secs   av.it.:  15.8
      thresh= 6.331E-09 alpha_mix =  0.700 |ddv_scf|^2 =  1.527E-15

      iter #  19 total cpu time : 63682.0 secs   av.it.:  14.9
      thresh= 3.908E-09 alpha_mix =  0.700 |ddv_scf|^2 =  5.262E-16

      iter #  20 total cpu time : 63799.3 secs   av.it.:  14.8
      thresh= 2.294E-09 alpha_mix =  0.700 |ddv_scf|^2 =  1.379E-17

     End of self-consistent calculation

     Convergence has been achieved 


     Representation #  62 mode #  62

     Self-consistent Calculation

      iter #   1 total cpu time : 63890.1 secs   av.it.:   6.0
      thresh= 1.000E-02 alpha_mix =  0.700 |ddv_scf|^2 =  1.402E-06

      iter #   2 total cpu time : 64019.4 secs   av.it.:  17.0
      thresh= 1.184E-04 alpha_mix =  0.700 |ddv_scf|^2 =  1.324E-04

      iter #   3 total cpu time : 64131.3 secs   av.it.:  13.0
      thresh= 1.151E-03 alpha_mix =  0.700 |ddv_scf|^2 =  6.295E-07

      iter #   4 total cpu time : 64258.0 secs   av.it.:  15.0
      thresh= 7.934E-05 alpha_mix =  0.700 |ddv_scf|^2 =  4.741E-07

      iter #   5 total cpu time : 64381.8 secs   av.it.:  14.0
      thresh= 6.885E-05 alpha_mix =  0.700 |ddv_scf|^2 =  1.796E-07

      iter #   6 total cpu time : 64503.6 secs   av.it.:  14.1
      thresh= 4.238E-05 alpha_mix =  0.700 |ddv_scf|^2 =  9.358E-09

      iter #   7 total cpu time : 64625.3 secs   av.it.:  15.0
      thresh= 9.674E-06 alpha_mix =  0.700 |ddv_scf|^2 =  2.117E-09

      iter #   8 total cpu time : 64740.3 secs   av.it.:  14.6
      thresh= 4.601E-06 alpha_mix =  0.700 |ddv_scf|^2 =  7.074E-11

      iter #   9 total cpu time : 64864.0 secs   av.it.:  16.4
      thresh= 8.411E-07 alpha_mix =  0.700 |ddv_scf|^2 =  7.702E-11

      iter #  10 total cpu time : 64985.0 secs   av.it.:  15.0
      thresh= 8.776E-07 alpha_mix =  0.700 |ddv_scf|^2 =  7.435E-12

      iter #  11 total cpu time : 65106.4 secs   av.it.:  15.3
      thresh= 2.727E-07 alpha_mix =  0.700 |ddv_scf|^2 =  1.494E-12

      iter #  12 total cpu time : 65233.4 secs   av.it.:  16.1
      thresh= 1.222E-07 alpha_mix =  0.700 |ddv_scf|^2 =  6.595E-12

      iter #  13 total cpu time : 65350.2 secs   av.it.:  14.9
      thresh= 2.568E-07 alpha_mix =  0.700 |ddv_scf|^2 =  4.302E-12

      iter #  14 total cpu time : 65463.9 secs   av.it.:  14.6
      thresh= 2.074E-07 alpha_mix =  0.700 |ddv_scf|^2 =  1.280E-12

      iter #  15 total cpu time : 65579.2 secs   av.it.:  14.9
      thresh= 1.131E-07 alpha_mix =  0.700 |ddv_scf|^2 =  4.495E-13

      iter #  16 total cpu time : 65704.8 secs   av.it.:  16.5
      thresh= 6.704E-08 alpha_mix =  0.700 |ddv_scf|^2 =  2.486E-12

      iter #  17 total cpu time : 65816.9 secs   av.it.:  14.0
      thresh= 1.577E-07 alpha_mix =  0.700 |ddv_scf|^2 =  5.012E-13

      iter #  18 total cpu time : 65938.1 secs   av.it.:  15.3
      thresh= 7.079E-08 alpha_mix =  0.700 |ddv_scf|^2 =  7.059E-13

      iter #  19 total cpu time : 66052.5 secs   av.it.:  14.0
      thresh= 8.402E-08 alpha_mix =  0.700 |ddv_scf|^2 =  1.555E-13

      iter #  20 total cpu time : 66179.2 secs   av.it.:  16.0
      thresh= 3.943E-08 alpha_mix =  0.700 |ddv_scf|^2 =  4.682E-13

      iter #  21 total cpu time : 66293.1 secs   av.it.:  14.0
      thresh= 6.842E-08 alpha_mix =  0.700 |ddv_scf|^2 =  1.379E-13

      iter #  22 total cpu time : 66409.7 secs   av.it.:  14.0
      thresh= 3.713E-08 alpha_mix =  0.700 |ddv_scf|^2 =  6.493E-15

      iter #  23 total cpu time : 66536.4 secs   av.it.:  17.0
      thresh= 8.058E-09 alpha_mix =  0.700 |ddv_scf|^2 =  6.749E-14

      iter #  24 total cpu time : 66651.4 secs   av.it.:  14.1
      thresh= 2.598E-08 alpha_mix =  0.700 |ddv_scf|^2 =  2.553E-15

      iter #  25 total cpu time : 66772.4 secs   av.it.:  15.1
      thresh= 5.052E-09 alpha_mix =  0.700 |ddv_scf|^2 =  1.577E-15

      iter #  26 total cpu time : 66883.7 secs   av.it.:  14.9
      thresh= 3.971E-09 alpha_mix =  0.700 |ddv_scf|^2 =  4.107E-17

[...]

      iter #   2 total cpu time :240224.8 secs   av.it.:  17.0
      thresh= 1.218E-04 alpha_mix =  0.700 |ddv_scf|^2 =  1.514E-04

      iter #   3 total cpu time :240374.3 secs   av.it.:  13.0
      thresh= 1.230E-03 alpha_mix =  0.700 |ddv_scf|^2 =  1.426E-06

      iter #   4 total cpu time :240566.9 secs   av.it.:  14.0
      thresh= 1.194E-04 alpha_mix =  0.700 |ddv_scf|^2 =  4.455E-07

      iter #   5 total cpu time :240735.2 secs   av.it.:  14.9
      thresh= 6.675E-05 alpha_mix =  0.700 |ddv_scf|^2 =  3.279E-07

      iter #   6 total cpu time :240892.3 secs   av.it.:  14.2
      thresh= 5.726E-05 alpha_mix =  0.700 |ddv_scf|^2 =  6.736E-09

      iter #   7 total cpu time :241050.0 secs   av.it.:  15.1
      thresh= 8.207E-06 alpha_mix =  0.700 |ddv_scf|^2 =  3.164E-09

      iter #   8 total cpu time :241194.0 secs   av.it.:  14.7
      thresh= 5.625E-06 alpha_mix =  0.700 |ddv_scf|^2 =  1.411E-10

      iter #   9 total cpu time :241349.6 secs   av.it.:  15.1
      thresh= 1.188E-06 alpha_mix =  0.700 |ddv_scf|^2 =  3.649E-11

      iter #  10 total cpu time :241508.7 secs   av.it.:  15.9
      thresh= 6.041E-07 alpha_mix =  0.700 |ddv_scf|^2 =  2.424E-11

      iter #  11 total cpu time :241665.6 secs   av.it.:  15.0
      thresh= 4.924E-07 alpha_mix =  0.700 |ddv_scf|^2 =  3.599E-13

      iter #  12 total cpu time :241824.6 secs   av.it.:  16.0
      thresh= 5.999E-08 alpha_mix =  0.700 |ddv_scf|^2 =  3.243E-13

      iter #  13 total cpu time :241982.0 secs   av.it.:  15.6
      thresh= 5.695E-08 alpha_mix =  0.700 |ddv_scf|^2 =  1.535E-13

      iter #  14 total cpu time :242134.7 secs   av.it.:  14.6
      thresh= 3.918E-08 alpha_mix =  0.700 |ddv_scf|^2 =  8.682E-14

      iter #  15 total cpu time :242293.5 secs   av.it.:  14.8
      thresh= 2.946E-08 alpha_mix =  0.700 |ddv_scf|^2 =  6.406E-15

      iter #  16 total cpu time :242467.2 secs   av.it.:  16.0
      thresh= 8.003E-09 alpha_mix =  0.700 |ddv_scf|^2 =  1.375E-14

      iter #  17 total cpu time :242618.8 secs   av.it.:  14.9
      thresh= 1.173E-08 alpha_mix =  0.700 |ddv_scf|^2 =  9.195E-15

      iter #  18 total cpu time :242762.5 secs   av.it.:  14.5
      thresh= 9.589E-09 alpha_mix =  0.700 |ddv_scf|^2 =  8.439E-16

      iter #  19 total cpu time :242927.9 secs   av.it.:  15.8
      thresh= 2.905E-09 alpha_mix =  0.700 |ddv_scf|^2 =  3.828E-16

      iter #  20 total cpu time :243082.0 secs   av.it.:  15.0
      thresh= 1.956E-09 alpha_mix =  0.700 |ddv_scf|^2 =  8.438E-17

     End of self-consistent calculation

     Convergence has been achieved 


     Representation #  66 mode #  66

     Self-consistent Calculation

      iter #   1 total cpu time :243332.8 secs   av.it.:   7.0
      thresh= 1.000E-02 alpha_mix =  0.700 |ddv_scf|^2 =  4.738E-06

      iter #   2 total cpu time :243501.6 secs   av.it.:  17.0
      thresh= 2.177E-04 alpha_mix =  0.700 |ddv_scf|^2 =  4.569E-04

      iter #   3 total cpu time :243668.7 secs   av.it.:  13.0
      thresh= 2.138E-03 alpha_mix =  0.700 |ddv_scf|^2 =  4.196E-06

      iter #   4 total cpu time :243831.2 secs   av.it.:  14.5
      thresh= 2.049E-04 alpha_mix =  0.700 |ddv_scf|^2 =  8.801E-07

      iter #   5 total cpu time :244014.0 secs   av.it.:  14.0
      thresh= 9.381E-05 alpha_mix =  0.700 |ddv_scf|^2 =  3.472E-07

      iter #   6 total cpu time :244169.3 secs   av.it.:  14.0
      thresh= 5.892E-05 alpha_mix =  0.700 |ddv_scf|^2 =  6.800E-09

      iter #   7 total cpu time :244336.6 secs   av.it.:  15.9
      thresh= 8.246E-06 alpha_mix =  0.700 |ddv_scf|^2 =  4.421E-09

      iter #   8 total cpu time :244492.2 secs   av.it.:  15.0
      thresh= 6.649E-06 alpha_mix =  0.700 |ddv_scf|^2 =  6.388E-10

      iter #   9 total cpu time :244647.9 secs   av.it.:  15.0
      thresh= 2.527E-06 alpha_mix =  0.700 |ddv_scf|^2 =  1.297E-10

      iter #  10 total cpu time :244807.7 secs   av.it.:  15.0
      thresh= 1.139E-06 alpha_mix =  0.700 |ddv_scf|^2 =  9.874E-12

      iter #  11 total cpu time :244974.2 secs   av.it.:  15.0
      thresh= 3.142E-07 alpha_mix =  0.700 |ddv_scf|^2 =  6.226E-13

      iter #  12 total cpu time :245139.3 secs   av.it.:  15.6
      thresh= 7.890E-08 alpha_mix =  0.700 |ddv_scf|^2 =  3.010E-13

      iter #  13 total cpu time :245311.4 secs   av.it.:  15.7
      thresh= 5.487E-08 alpha_mix =  0.700 |ddv_scf|^2 =  1.466E-13

      iter #  14 total cpu time :245468.6 secs   av.it.:  14.8
      thresh= 3.829E-08 alpha_mix =  0.700 |ddv_scf|^2 =  9.512E-15

      iter #  15 total cpu time :245637.4 secs   av.it.:  15.7
      thresh= 9.753E-09 alpha_mix =  0.700 |ddv_scf|^2 =  4.601E-16

      iter #  16 total cpu time :245798.9 secs   av.it.:  16.3
      thresh= 2.145E-09 alpha_mix =  0.700 |ddv_scf|^2 =  1.482E-15

      iter #  17 total cpu time :245951.5 secs   av.it.:  14.0
      thresh= 3.850E-09 alpha_mix =  0.700 |ddv_scf|^2 =  3.578E-16

      iter #  18 total cpu time :246114.2 secs   av.it.:  15.1
      thresh= 1.892E-09 alpha_mix =  0.700 |ddv_scf|^2 =  2.485E-16

      iter #  19 total cpu time :246295.4 secs   av.it.:  15.0
      thresh= 1.576E-09 alpha_mix =  0.700 |ddv_scf|^2 =  2.415E-16

      iter #  20 total cpu time :246445.9 secs   av.it.:  14.5
      thresh= 1.554E-09 alpha_mix =  0.700 |ddv_scf|^2 =  3.413E-17

     End of self-consistent calculation

     Convergence has been achieved 

     Number of q in the star =    3
     List of q in the star:
          1   0.288675135  -0.500000000  -0.185031592
          2   0.577350269  -0.000000000   0.185031592
          3  -0.288675135  -0.500000000   0.185031592

     Diagonalizing the dynamical matrix

     q = (    0.288675135  -0.500000000  -0.185031592 ) 

 **************************************************************************
     freq (    1) =       1.223387 [THz] =      40.807794 [cm-1]
     freq (    2) =       1.307479 [THz] =      43.612804 [cm-1]
     freq (    3) =       1.404465 [THz] =      46.847913 [cm-1]
     freq (    4) =       1.426648 [THz] =      47.587838 [cm-1]
     freq (    5) =       1.491438 [THz] =      49.749011 [cm-1]
     freq (    6) =       1.570723 [THz] =      52.393682 [cm-1]
     freq (    7) =       1.661463 [THz] =      55.420437 [cm-1]
     freq (    8) =       1.712546 [THz] =      57.124401 [cm-1]
     freq (    9) =       1.819689 [THz] =      60.698278 [cm-1]
     freq (   10) =       1.837236 [THz] =      61.283583 [cm-1]
     freq (   11) =       2.149592 [THz] =      71.702673 [cm-1]
     freq (   12) =       2.209265 [THz] =      73.693161 [cm-1]
     freq (   13) =       2.225839 [THz] =      74.245992 [cm-1]
     freq (   14) =       2.278810 [THz] =      76.012912 [cm-1]
     freq (   15) =       2.281483 [THz] =      76.102080 [cm-1]
     freq (   16) =       2.408371 [THz] =      80.334601 [cm-1]
     freq (   17) =       2.505023 [THz] =      83.558577 [cm-1]
     freq (   18) =       2.513866 [THz] =      83.853539 [cm-1]
     freq (   19) =       2.533393 [THz] =      84.504896 [cm-1]
     freq (   20) =       2.572988 [THz] =      85.825654 [cm-1]
     freq (   21) =       2.624174 [THz] =      87.533023 [cm-1]
     freq (   22) =       2.648198 [THz] =      88.334378 [cm-1]
     freq (   23) =       2.681342 [THz] =      89.439934 [cm-1]
     freq (   24) =       2.763037 [THz] =      92.164978 [cm-1]
     freq (   25) =       2.800813 [THz] =      93.425070 [cm-1]
     freq (   26) =       2.843090 [THz] =      94.835276 [cm-1]
     freq (   27) =       2.951828 [THz] =      98.462388 [cm-1]
     freq (   28) =       2.961459 [THz] =      98.783647 [cm-1]
     freq (   29) =       3.044623 [THz] =     101.557684 [cm-1]
     freq (   30) =       3.101392 [THz] =     103.451288 [cm-1]
     freq (   31) =       3.220952 [THz] =     107.439385 [cm-1]
     freq (   32) =       3.226302 [THz] =     107.617837 [cm-1]
     freq (   33) =       3.230990 [THz] =     107.774221 [cm-1]
     freq (   34) =       3.291789 [THz] =     109.802258 [cm-1]
     freq (   35) =       3.293598 [THz] =     109.862609 [cm-1]
     freq (   36) =       3.321256 [THz] =     110.785184 [cm-1]
     freq (   37) =       3.368429 [THz] =     112.358705 [cm-1]
     freq (   38) =       3.433103 [THz] =     114.515979 [cm-1]
     freq (   39) =       3.464956 [THz] =     115.578495 [cm-1]
     freq (   40) =       3.478736 [THz] =     116.038153 [cm-1]
     freq (   41) =       3.524659 [THz] =     117.569959 [cm-1]
     freq (   42) =       3.574847 [THz] =     119.244044 [cm-1]
     freq (   43) =       3.788884 [THz] =     126.383574 [cm-1]
     freq (   44) =       3.846197 [THz] =     128.295337 [cm-1]
     freq (   45) =       3.859151 [THz] =     128.727416 [cm-1]
     freq (   46) =       3.862561 [THz] =     128.841157 [cm-1]
     freq (   47) =       3.971371 [THz] =     132.470665 [cm-1]
     freq (   48) =       4.258084 [THz] =     142.034398 [cm-1]
     freq (   49) =       5.138704 [THz] =     171.408717 [cm-1]
     freq (   50) =       5.158045 [THz] =     172.053870 [cm-1]
     freq (   51) =       5.427899 [THz] =     181.055220 [cm-1]
     freq (   52) =       5.429406 [THz] =     181.105486 [cm-1]
     freq (   53) =       6.017013 [THz] =     200.705956 [cm-1]
     freq (   54) =       6.038855 [THz] =     201.434533 [cm-1]
     freq (   55) =       6.151958 [THz] =     205.207247 [cm-1]
     freq (   56) =       6.214371 [THz] =     207.289113 [cm-1]
     freq (   57) =       6.245275 [THz] =     208.319964 [cm-1]
     freq (   58) =       6.407739 [THz] =     213.739172 [cm-1]
     freq (   59) =       6.495802 [THz] =     216.676626 [cm-1]
     freq (   60) =       6.515613 [THz] =     217.337456 [cm-1]
     freq (   61) =       7.238301 [THz] =     241.443722 [cm-1]
     freq (   62) =       7.254215 [THz] =     241.974571 [cm-1]
     freq (   63) =       7.301057 [THz] =     243.537041 [cm-1]
     freq (   64) =       7.393599 [THz] =     246.623907 [cm-1]
     freq (   65) =       7.526718 [THz] =     251.064289 [cm-1]
     freq (   66) =       7.534918 [THz] =     251.337824 [cm-1]
 **************************************************************************

     Mode symmetry, C_2h (2/m)  point group:

     freq (   1-   1) =         40.8  [cm-1]   --> B_u                
     freq (   2-   2) =         43.6  [cm-1]   --> A_g                
     freq (   3-   3) =         46.8  [cm-1]   --> B_g                
     freq (   4-   4) =         47.6  [cm-1]   --> A_u                
     freq (   5-   5) =         49.7  [cm-1]   --> B_u                
     freq (   6-   6) =         52.4  [cm-1]   --> A_g                
     freq (   7-   7) =         55.4  [cm-1]   --> A_u                
     freq (   8-   8) =         57.1  [cm-1]   --> B_g                
     freq (   9-   9) =         60.7  [cm-1]   --> A_u                
     freq (  10-  10) =         61.3  [cm-1]   --> B_g                
     freq (  11-  11) =         71.7  [cm-1]   --> B_u                
     freq (  12-  12) =         73.7  [cm-1]   --> B_g                
     freq (  13-  13) =         74.2  [cm-1]   --> A_g                
     freq (  14-  14) =         76.0  [cm-1]   --> B_u                
     freq (  15-  15) =         76.1  [cm-1]   --> A_g                
     freq (  16-  16) =         80.3  [cm-1]   --> A_u                
     freq (  17-  17) =         83.6  [cm-1]   --> B_u                
     freq (  18-  18) =         83.9  [cm-1]   --> A_g                
     freq (  19-  19) =         84.5  [cm-1]   --> B_g                
     freq (  20-  20) =         85.8  [cm-1]   --> B_u                
     freq (  21-  21) =         87.5  [cm-1]   --> A_u                
     freq (  22-  22) =         88.3  [cm-1]   --> A_g                
     freq (  23-  23) =         89.4  [cm-1]   --> B_u                
     freq (  24-  24) =         92.2  [cm-1]   --> A_g                
     freq (  25-  25) =         93.4  [cm-1]   --> B_g                
     freq (  26-  26) =         94.8  [cm-1]   --> A_u                
     freq (  27-  27) =         98.5  [cm-1]   --> A_g                
     freq (  28-  28) =         98.8  [cm-1]   --> B_u                
     freq (  29-  29) =        101.6  [cm-1]   --> B_g                
     freq (  30-  30) =        103.5  [cm-1]   --> A_u                
     freq (  31-  31) =        107.4  [cm-1]   --> B_g                
     freq (  32-  32) =        107.6  [cm-1]   --> B_u                
     freq (  33-  33) =        107.8  [cm-1]   --> A_g                
     freq (  34-  34) =        109.8  [cm-1]   --> B_u                
     freq (  35-  35) =        109.9  [cm-1]   --> A_g                
     freq (  36-  36) =        110.8  [cm-1]   --> A_u                
     freq (  37-  37) =        112.4  [cm-1]   --> B_u                
     freq (  38-  38) =        114.5  [cm-1]   --> B_g                
     freq (  39-  39) =        115.6  [cm-1]   --> A_g                
     freq (  40-  40) =        116.0  [cm-1]   --> A_u                
     freq (  41-  41) =        117.6  [cm-1]   --> B_u                
     freq (  42-  42) =        119.2  [cm-1]   --> A_g                
     freq (  43-  43) =        126.4  [cm-1]   --> B_u                
     freq (  44-  44) =        128.3  [cm-1]   --> A_u                
     freq (  45-  45) =        128.7  [cm-1]   --> A_g                
     freq (  46-  46) =        128.8  [cm-1]   --> B_g                
     freq (  47-  47) =        132.5  [cm-1]   --> B_u                
     freq (  48-  48) =        142.0  [cm-1]   --> A_g                
     freq (  49-  49) =        171.4  [cm-1]   --> B_g                
     freq (  50-  50) =        172.1  [cm-1]   --> A_u                
     freq (  51-  51) =        181.1  [cm-1]   --> B_u                
     freq (  52-  52) =        181.1  [cm-1]   --> A_g                
     freq (  53-  53) =        200.7  [cm-1]   --> B_g                
     freq (  54-  54) =        201.4  [cm-1]   --> A_u                
     freq (  55-  55) =        205.2  [cm-1]   --> B_g                
     freq (  56-  56) =        207.3  [cm-1]   --> A_u                
     freq (  57-  57) =        208.3  [cm-1]   --> B_u                
     freq (  58-  58) =        213.7  [cm-1]   --> A_g                
     freq (  59-  59) =        216.7  [cm-1]   --> A_g                
     freq (  60-  60) =        217.3  [cm-1]   --> B_u                
     freq (  61-  61) =        241.4  [cm-1]   --> B_g                
     freq (  62-  62) =        242.0  [cm-1]   --> B_u                
     freq (  63-  63) =        243.5  [cm-1]   --> A_u                
     freq (  64-  64) =        246.6  [cm-1]   --> A_g                
     freq (  65-  65) =        251.1  [cm-1]   --> A_g                
     freq (  66-  66) =        251.3  [cm-1]   --> B_u                

     init_run     :      0.58s CPU      0.92s WALL (       1 calls)
     electrons    :    509.57s CPU    522.35s WALL (       1 calls)

     Called by init_run:
     wfcinit      :      0.00s CPU      0.19s WALL (       1 calls)
     potinit      :      0.13s CPU      0.27s WALL (       1 calls)
     hinit0       :      0.05s CPU      0.05s WALL (       1 calls)

     Called by electrons:
     c_bands      :    509.01s CPU    521.78s WALL (       1 calls)
     v_of_rho     :      0.35s CPU      0.39s WALL (       3 calls)

     Called by c_bands:
     init_us_2    :     35.44s CPU     41.19s WALL (   11334 calls)
     cegterg      :    381.38s CPU    390.49s WALL (      40 calls)

     Called by *egterg:
     cdiaghg      :     85.28s CPU     87.92s WALL (     703 calls)
     h_psi        : 115163.18s CPU 117332.03s WALL (  528509 calls)
     g_psi        :      0.77s CPU      0.78s WALL (     691 calls)

     Called by h_psi:
     h_psi:calbec :   9097.55s CPU   9303.28s WALL (  528509 calls)
     vloc_psi     :  97208.54s CPU  99026.16s WALL (  528509 calls)
     add_vuspsi   :   7908.91s CPU   8039.52s WALL (  528509 calls)

     General routines
     calbec       :  17968.72s CPU  18366.20s WALL ( 1058687 calls)
     fft          :     85.33s CPU     91.57s WALL (   18627 calls)
     ffts         :    873.31s CPU    883.93s WALL (    6984 calls)
     fftw         : 112590.51s CPU 114556.52s WALL (62635178 calls)
     davcio       :      8.47s CPU  25983.94s WALL (   68988 calls)

     Parallel routines

     PHONON       : 213594.90s CPU 246547.88s WALL

     INITIALIZATION: 
     phq_setup    :      0.71s CPU      0.89s WALL (       2 calls)
     phq_init     :     20.27s CPU     30.30s WALL (       2 calls)

     phq_init     :     20.27s CPU     30.30s WALL (       2 calls)
     init_vloc    :      0.05s CPU      0.05s WALL (       3 calls)
     init_us_1    :      0.00s CPU      0.00s WALL (       3 calls)
     init_us_2    :     35.44s CPU     41.19s WALL (   11334 calls)

     DYNAMICAL MATRIX:
     dynmat0      :     12.93s CPU     15.62s WALL (       1 calls)
     dynmat_us    :     12.66s CPU     14.77s WALL (       1 calls)
     d2ionq       :      0.23s CPU      0.23s WALL (       1 calls)
     phqscf       : 213044.58s CPU 245887.68s WALL (       2 calls)
     dynmatrix    :      9.58s CPU     10.40s WALL (       2 calls)

     phqscf       : 213044.58s CPU 245887.68s WALL (       2 calls)
     solve_linter : 212484.52s CPU 244994.53s WALL (      97 calls)
     sth_kernel   : 195168.88s CPU 220994.12s WALL (    1690 calls)
     h_prec       :   7990.32s CPU   8057.07s WALL (   10140 calls)
     apply_dpot_b :  12689.23s CPU  12867.83s WALL (    9558 calls)
     ortho        :    992.67s CPU   1011.06s WALL (   10140 calls)
     cgsolve      : 142588.65s CPU 145414.09s WALL (   10140 calls)
     incdrhoscf   :  27705.00s CPU  28119.91s WALL (   10140 calls)
                                        0.00s GPU  (   10140 calls)
     dv_of_drho   :    175.13s CPU    205.32s WALL (    1690 calls)
     mix_pot      :   3509.79s CPU   7075.87s WALL (    1690 calls)
     drhodv       :    554.89s CPU    692.54s WALL (      97 calls)
     psymdvscf    :   1677.30s CPU   1850.48s WALL (    1690 calls)

     dvqpsi_us    :   1495.36s CPU   1515.64s WALL (     582 calls)
                                        0.00s GPU  (     582 calls)
     dvqpsi_us_on :    162.48s CPU    165.45s WALL (     582 calls)

     add_vuspsi   :   7908.91s CPU   8039.52s WALL (  528509 calls)


      General routines
     calbec       :  17968.72s CPU  18366.20s WALL ( 1058687 calls)
     fft          :     85.33s CPU     91.57s WALL (   18627 calls)
     ffts         :    873.31s CPU    883.93s WALL (    6984 calls)
     fftw         : 112590.51s CPU 114556.52s WALL (62635178 calls)
     davcio       :      8.47s CPU  25983.94s WALL (   68988 calls)
     write_rec    :     14.98s CPU   2365.91s WALL (    1787 calls)

      Additional routines
     ch_psi       : 137327.59s CPU 139974.52s WALL (  527766 calls)
     last         :  19831.46s CPU  20240.03s WALL (  527766 calls)
     Hesh         :   1024.43s CPU   1043.11s WALL (  527766 calls)
     ch_psi_all_k :  18801.61s CPU  19193.06s WALL (  527766 calls)
                                        0.00s GPU  (  527766 calls)
     ch_psi_calbe :   8487.00s CPU   8668.15s WALL (  527766 calls)
                                        0.00s GPU  (  527766 calls)
     h_psi_bgrp   : 115165.17s CPU 117333.22s WALL (  528509 calls)
     h_psi        : 115163.18s CPU 117332.03s WALL (  528509 calls)
     h_psi:pot    : 114222.37s CPU 116372.97s WALL (  528509 calls)
     h_psi:calbec :   9097.55s CPU   9303.28s WALL (  528509 calls)
     s_psi_bgrp   :   1842.14s CPU   1879.85s WALL ( 1065672 calls)


     PHONON       : 213594.91s CPU 246547.89s WALL


   This run was terminated on:   8:42:30  14May2025            

=------------------------------------------------------------------------------=
   JOB DONE.
=------------------------------------------------------------------------------=
