
     Program PWSCF v.7.3.1 starts on  7May2025 at 20:42: 1 

     This program is part of the open-source Quantum ESPRESSO suite
     for quantum simulation of materials; please cite
         "P. Giannozzi et al., J. Phys.:Condens. Matter 21 395502 (2009);
         "P. Giannozzi et al., J. Phys.:Condens. Matter 29 465901 (2017);
         "P. Giannozzi et al., J. Chem. Phys. 152 154105 (2020);
          URL http://www.quantum-espresso.org", 
     in publications or presentations arising from this work. More details at
     http://www.quantum-espresso.org/quote

     Parallel version (MPI & OpenMP), running on     384 processor cores
     Number of MPI processes:               384
     Threads/MPI process:                     1

     MPI processes distributed on     2 nodes
     315775 MiB available memory on the printing compute node when the environment starts

     Waiting for input...
     Reading input from standard input
Warning: card &CELL ignored
Warning: card / ignored
Warning: card &FCP ignored
Warning: card / ignored
Warning: card &RISM ignored
Warning: card / ignored

     Current dimensions of program PWSCF are:
     Max number of different atomic species (ntypx) = 10
     Max number of k-points (npk) =  40000
     Max angular momentum in pseudopotentials (lmaxx) =  4

     IMPORTANT: XC functional enforced from input :
     Exchange-correlation= PBE
                           (   1   4   3   4   0   0   0)
     Any further DFT definition will be discarded
     Please, verify this is what you really want

     Message from routine setup:
     using ibrav=0 with symmetry is DISCOURAGED, use correct ibrav instead

     K-points division:     npool     =      12
     R & G space division:  proc/nbgrp/npool/nimage =      32
     Subspace diagonalization in iterative solution of the eigenvalue problem:
     one sub-group per band group will be used
     ELPA distributed-memory algorithm (size of sub-group:  2*  2 procs)


     Parallelization info
     --------------------
     sticks:   dense  smooth     PW     G-vecs:    dense   smooth      PW
     Min         179     179     47                19743    19743    2690
     Max         180     180     48                19748    19748    2697
     Sum        5731    5731   1519               631887   631887   86161

     Using Slab Decomposition



     bravais-lattice index     =            0
     lattice parameter (alat)  =      14.4200  a.u.
     unit-cell volume          =    4677.9756 (a.u.)^3
     number of atoms/cell      =           22
     number of atomic types    =            2
     number of electrons       =       350.00
     number of Kohn-Sham states=          210
     kinetic-energy cutoff     =     100.0000  Ry
     charge density cutoff     =     400.0000  Ry
     scf convergence threshold =      1.0E-12
     mixing beta               =       0.7000
     number of iterations used =            8  plain     mixing
     Exchange-correlation= PBE
                           (   1   4   3   4   0   0   0)

     celldm(1)=  14.419985  celldm(2)=   0.000000  celldm(3)=   0.000000
     celldm(4)=   0.000000  celldm(5)=   0.000000  celldm(6)=   0.000000

     crystal axes: (cart. coord. in units of alat)
               a(1) = (   0.866025   0.500000   0.000000 )  
               a(2) = (  -0.866025   0.500000   0.000000 )  
               a(3) = (  -0.577350   0.000000   1.801494 )  

     reciprocal axes: (cart. coord. in units 2 pi/alat)
               b(1) = (  0.577350  1.000000  0.185032 )  
               b(2) = ( -0.577350  1.000000 -0.185032 )  
               b(3) = (  0.000000 -0.000000  0.555095 )  


     PseudoPot. # 1 for Nb read from file:
     /scratch-shared/mroesner/Nb3X8_cDFPT/pp/Nb_ONCV_PBE-1.2.upf
     MD5 check sum: 2c750ac0b6910ff4cf0ab5f6c4124a64
     Pseudo is Norm-conserving, Zval = 13.0
     Generated using ONCVPSP code by D. R. Hamann
     Using radial grid of  602 points,  6 beta functions with: 
                l(1) =   0
                l(2) =   0
                l(3) =   1
                l(4) =   1
                l(5) =   2
                l(6) =   2

     PseudoPot. # 2 for I  read from file:
     /scratch-shared/mroesner/Nb3X8_cDFPT/pp/I_ONCV_PBE-1.2.upf
     MD5 check sum: 8277ef51204d8074ead4596f3b37a2aa
     Pseudo is Norm-conserving, Zval = 17.0
     Generated using ONCVPSP code by D. R. Hamann
     Using radial grid of  602 points,  6 beta functions with: 
                l(1) =   0
                l(2) =   0
                l(3) =   1
                l(4) =   1
                l(5) =   2
                l(6) =   2

     atomic species   valence    mass     pseudopotential
     Nb               13.00    92.90637     Nb( 1.00)
     I                17.00   126.90447     I ( 1.00)

     12 Sym. Ops., with inversion, found


                                    s                        frac. trans.

      isym =  1     identity                                     

 cryst.   s( 1) = (     1          0          0      )
                  (     0          1          0      )
                  (     0          0          1      )

 cart.    s( 1) = (  1.0000000  0.0000000  0.0000000 )
                  (  0.0000000  1.0000000 -0.0000000 )
                  (  0.0000000  0.0000000  1.0000000 )


      isym =  2     180 deg rotation - cart. axis [0,1,0]        

 cryst.   s( 2) = (     0          1          0      )
                  (     1          0          0      )
                  (     0          0         -1      )

 cart.    s( 2) = ( -1.0000000  0.0000000 -0.0000000 )
                  ( -0.0000000  1.0000000  0.0000000 )
                  (  0.0000000  0.0000000 -1.0000000 )


      isym =  3     120 deg rotation - cryst. axis [0,0,1]       

 cryst.   s( 3) = (     0          1          0      )
                  (    -1         -1          0      )
                  (     0         -1          1      )

 cart.    s( 3) = ( -0.5000000 -0.8660254  0.0000000 )
                  (  0.8660254 -0.5000000 -0.0000000 )
                  (  0.0000000  0.0000000  1.0000000 )


      isym =  4     120 deg rotation - cryst. axis [0,0,-1]      

 cryst.   s( 4) = (    -1         -1          0      )
                  (     1          0          0      )
                  (     1          0          1      )

 cart.    s( 4) = ( -0.5000000  0.8660254  0.0000000 )
                  ( -0.8660254 -0.5000000  0.0000000 )
                  (  0.0000000  0.0000000  1.0000000 )


      isym =  5     180 deg rotation - cryst. axis [1,-1,0]      

 cryst.   s( 5) = (    -1         -1          0      )
                  (     0          1          0      )
                  (     0          1         -1      )

 cart.    s( 5) = (  0.5000000 -0.8660254 -0.0000000 )
                  ( -0.8660254 -0.5000000  0.0000000 )
                  (  0.0000000  0.0000000 -1.0000000 )


      isym =  6     180 deg rotation - cryst. axis [2,1,0]       

 cryst.   s( 6) = (     1          0          0      )
                  (    -1         -1          0      )
                  (    -1          0         -1      )

 cart.    s( 6) = (  0.5000000  0.8660254 -0.0000000 )
                  (  0.8660254 -0.5000000 -0.0000000 )
                  (  0.0000000  0.0000000 -1.0000000 )


      isym =  7     inversion                                    

 cryst.   s( 7) = (    -1          0          0      )
                  (     0         -1          0      )
                  (     0          0         -1      )

 cart.    s( 7) = ( -1.0000000 -0.0000000 -0.0000000 )
                  ( -0.0000000 -1.0000000  0.0000000 )
                  (  0.0000000  0.0000000 -1.0000000 )


      isym =  8     inv. 180 deg rotation - cart. axis [0,1,0]   

 cryst.   s( 8) = (     0         -1          0      )
                  (    -1          0          0      )
                  (     0          0          1      )

 cart.    s( 8) = (  1.0000000 -0.0000000  0.0000000 )
                  (  0.0000000 -1.0000000 -0.0000000 )
                  (  0.0000000  0.0000000  1.0000000 )


      isym =  9     inv. 120 deg rotation - cryst. axis [0,0,1]  

 cryst.   s( 9) = (     0         -1          0      )
                  (     1          1          0      )
                  (     0          1         -1      )

 cart.    s( 9) = (  0.5000000  0.8660254 -0.0000000 )
                  ( -0.8660254  0.5000000  0.0000000 )
                  (  0.0000000  0.0000000 -1.0000000 )


      isym = 10     inv. 120 deg rotation - cryst. axis [0,0,-1] 

 cryst.   s(10) = (     1          1          0      )
                  (    -1          0          0      )
                  (    -1          0         -1      )

 cart.    s(10) = (  0.5000000 -0.8660254 -0.0000000 )
                  (  0.8660254  0.5000000 -0.0000000 )
                  (  0.0000000  0.0000000 -1.0000000 )


      isym = 11     inv. 180 deg rotation - cryst. axis [1,-1,0] 

 cryst.   s(11) = (     1          1          0      )
                  (     0         -1          0      )
                  (     0         -1          1      )

 cart.    s(11) = ( -0.5000000  0.8660254  0.0000000 )
                  (  0.8660254  0.5000000 -0.0000000 )
                  (  0.0000000  0.0000000  1.0000000 )


      isym = 12     inv. 180 deg rotation - cryst. axis [2,1,0]  

 cryst.   s(12) = (    -1          0          0      )
                  (     1          1          0      )
                  (     1          0          1      )

 cart.    s(12) = ( -0.5000000 -0.8660254  0.0000000 )
                  ( -0.8660254  0.5000000  0.0000000 )
                  (  0.0000000  0.0000000  1.0000000 )


   Cartesian axes

     site n.     atom                  positions (alat units)
         1        Nb     tau(   1) = (  -1.2167714   0.5000000   1.3453228  )
         2        Nb     tau(   2) = (  -0.6906524   0.1962451   1.3453228  )
         3        Nb     tau(   3) = (  -0.6906524   0.8037549   1.3453228  )
         4        Nb     tau(   4) = (   0.6394211   0.5000000   0.4561713  )
         5        Nb     tau(   5) = (   0.1133021   0.8037549   0.4561713  )
         6        Nb     tau(   6) = (   0.1133021   0.1962451   0.4561713  )
         7        I      tau(   7) = (   0.2886751   0.5000000   1.0651449  )
         8        I      tau(   8) = (  -0.5701187   0.5000000   1.1450936  )
         9        I      tau(   9) = (  -0.1479534   0.2562627   1.1450936  )
        10        I      tau(  10) = (  -0.1479534   0.7437373   1.1450936  )
        11        I      tau(  11) = (  -0.8660254   0.5000000   1.5362875  )
        12        I      tau(  12) = (  -0.0008883   0.5000000   1.5922517  )
        13        I      tau(  13) = (  -0.4325686   0.7492307   1.5922517  )
        14        I      tau(  14) = (  -0.4325686   0.2507693   1.5922517  )
        15        I      tau(  15) = (  -0.5764620   0.5000000   0.2092424  )
        16        I      tau(  16) = (  -0.1447817   0.2507693   0.2092424  )
        17        I      tau(  17) = (  -0.1447817   0.7492307   0.2092424  )
        18        I      tau(  18) = (   0.2886751   0.5000000   0.2652066  )
        19        I      tau(  19) = (  -0.0072316   0.5000000   0.6564006  )
        20        I      tau(  20) = (  -0.4293969   0.7437373   0.6564006  )
        21        I      tau(  21) = (  -0.4293969   0.2562627   0.6564006  )
        22        I      tau(  22) = (  -0.8660254   0.5000000   0.7363493  )

     --------------------------------------------
     DFT-D3 Dispersion Correction (no 3-body):
     --------------------------------------------
       Reference C6 values for interpolation: 

         atom   Coordination number   C6
         Nb         0.000          2950.50
         Nb         1.954          1161.16
         Nb         2.922           857.79
         I          0.000           703.93
         I          0.997           717.00

       Values used:

         atom   Coordination number  R0_AB[au]  C6      C8
         Nb         7.932            3.647    857.79 111659.18
         Nb         7.932            3.647    857.79 111659.18
         Nb         7.932            3.647    857.79 111659.18
         Nb         7.932            3.647    857.79 111659.18
         Nb         7.932            3.647    857.79 111659.18
         Nb         7.932            3.647    857.79 111659.18
         I          4.875            3.532    717.00  65856.01
         I          4.178            3.532    717.00  65856.01
         I          4.178            3.532    717.00  65856.01
         I          4.178            3.532    717.00  65856.01
         I          5.098            3.532    717.00  65856.01
         I          4.083            3.532    717.00  65856.01
         I          4.083            3.532    717.00  65856.01
         I          4.083            3.532    717.00  65856.01
         I          4.083            3.532    717.00  65856.01
         I          4.083            3.532    717.00  65856.01
         I          4.083            3.532    717.00  65856.01
         I          5.098            3.532    717.00  65856.01
         I          4.178            3.532    717.00  65856.01
         I          4.178            3.532    717.00  65856.01
         I          4.178            3.532    717.00  65856.01
         I          4.875            3.532    717.00  65856.01

         Molecular C6 ( Ry / a.u.^6 ) =    363889.37


   Crystallographic axes

     site n.     atom                  positions (cryst. coord.)
         1        Nb     tau(   1) = (  0.0464239  0.9535761  0.7467817  )
         2        Nb     tau(   2) = (  0.0464239  0.3460662  0.7467817  )
         3        Nb     tau(   3) = (  0.6539338  0.9535761  0.7467817  )
         4        Nb     tau(   4) = (  0.9535761  0.0464239  0.2532183  )
         5        Nb     tau(   5) = (  0.9535761  0.6539338  0.2532183  )
         6        Nb     tau(   6) = (  0.3460662  0.0464239  0.2532183  )
         7        I      tau(   7) = (  0.8637521  0.1362479  0.5912564  )
         8        I      tau(   8) = (  0.3827203  0.6172797  0.6356355  )
         9        I      tau(   9) = (  0.3827203  0.1298052  0.6356355  )
        10        I      tau(  10) = (  0.8701948  0.6172797  0.6356355  )
        11        I      tau(  11) = (  0.2842617  0.7157383  0.8527852  )
        12        I      tau(  12) = (  0.7941040  0.2058960  0.8838506  )
        13        I      tau(  13) = (  0.7941040  0.7043574  0.8838506  )
        14        I      tau(  14) = (  0.2956426  0.2058960  0.8838506  )
        15        I      tau(  15) = (  0.2058960  0.7941040  0.1161494  )
        16        I      tau(  16) = (  0.2058960  0.2956426  0.1161494  )
        17        I      tau(  17) = (  0.7043574  0.7941040  0.1161494  )
        18        I      tau(  18) = (  0.7157383  0.2842617  0.1472148  )
        19        I      tau(  19) = (  0.6172797  0.3827203  0.3643645  )
        20        I      tau(  20) = (  0.6172797  0.8701948  0.3643645  )
        21        I      tau(  21) = (  0.1298052  0.3827203  0.3643645  )
        22        I      tau(  22) = (  0.1362479  0.8637521  0.4087436  )

     number of k points=    32  Gaussian smearing, width (Ry)=  0.0037
                       cart. coord. in units 2pi/alat
        k(    1) = (   0.0000000   0.0000000   0.0000000), wk =   0.0092593
        k(    2) = (   0.0000000   0.0000000   0.0925158), wk =   0.0185185
        k(    3) = (   0.0000000   0.0000000   0.1850316), wk =   0.0185185
        k(    4) = (   0.0000000   0.0000000  -0.2775474), wk =   0.0092593
        k(    5) = (  -0.0962250   0.1666667  -0.0308386), wk =   0.0555556
        k(    6) = (  -0.0962250   0.1666667   0.0616772), wk =   0.0555556
        k(    7) = (  -0.0962250   0.1666667   0.1541930), wk =   0.0555556
        k(    8) = (  -0.0962250   0.1666667  -0.3083860), wk =   0.0555556
        k(    9) = (  -0.0962250   0.1666667  -0.2158702), wk =   0.0555556
        k(   10) = (  -0.0962250   0.1666667  -0.1233544), wk =   0.0555556
        k(   11) = (  -0.1924501   0.3333333  -0.0616772), wk =   0.0555556
        k(   12) = (  -0.1924501   0.3333333   0.0308386), wk =   0.0555556
        k(   13) = (  -0.1924501   0.3333333   0.1233544), wk =   0.0555556
        k(   14) = (  -0.1924501   0.3333333  -0.3392246), wk =   0.0555556
        k(   15) = (  -0.1924501   0.3333333  -0.2467088), wk =   0.0555556
        k(   16) = (  -0.1924501   0.3333333  -0.1541930), wk =   0.0555556
        k(   17) = (   0.2886751  -0.5000000   0.0925158), wk =   0.0277778
        k(   18) = (   0.2886751  -0.5000000   0.1850316), wk =   0.0555556
        k(   19) = (   0.2886751  -0.5000000   0.2775474), wk =   0.0555556
        k(   20) = (   0.2886751  -0.5000000  -0.1850316), wk =   0.0277778
        k(   21) = (  -0.0000000   0.3333333  -0.0000000), wk =   0.0555556
        k(   22) = (  -0.0000000   0.3333333   0.0925158), wk =   0.1111111
        k(   23) = (  -0.0000000   0.3333333   0.1850316), wk =   0.1111111
        k(   24) = (  -0.0000000   0.3333333  -0.2775474), wk =   0.0555556
        k(   25) = (  -0.0962250   0.5000000  -0.0308386), wk =   0.1111111
        k(   26) = (  -0.0962250   0.5000000   0.0616772), wk =   0.1111111
        k(   27) = (  -0.0962250   0.5000000   0.1541930), wk =   0.1111111
        k(   28) = (  -0.0962250   0.5000000  -0.3083860), wk =   0.1111111
        k(   29) = (  -0.0962250   0.5000000  -0.2158702), wk =   0.1111111
        k(   30) = (  -0.0962250   0.5000000  -0.1233544), wk =   0.1111111
        k(   31) = (  -0.0000000   0.6666667  -0.0000000), wk =   0.0555556
        k(   32) = (  -0.0000000   0.6666667   0.0925158), wk =   0.0555556

                       cryst. coord.
        k(    1) = (   0.0000000   0.0000000   0.0000000), wk =   0.0092593
        k(    2) = (   0.0000000   0.0000000   0.1666667), wk =   0.0185185
        k(    3) = (   0.0000000   0.0000000   0.3333333), wk =   0.0185185
        k(    4) = (   0.0000000   0.0000000  -0.5000000), wk =   0.0092593
        k(    5) = (  -0.0000000   0.1666667   0.0000000), wk =   0.0555556
        k(    6) = (  -0.0000000   0.1666667   0.1666667), wk =   0.0555556
        k(    7) = (  -0.0000000   0.1666667   0.3333333), wk =   0.0555556
        k(    8) = (  -0.0000000   0.1666667  -0.5000000), wk =   0.0555556
        k(    9) = (  -0.0000000   0.1666667  -0.3333333), wk =   0.0555556
        k(   10) = (  -0.0000000   0.1666667  -0.1666667), wk =   0.0555556
        k(   11) = (  -0.0000000   0.3333333   0.0000000), wk =   0.0555556
        k(   12) = (  -0.0000000   0.3333333   0.1666667), wk =   0.0555556
        k(   13) = (  -0.0000000   0.3333333   0.3333333), wk =   0.0555556
        k(   14) = (  -0.0000000   0.3333333  -0.5000000), wk =   0.0555556
        k(   15) = (  -0.0000000   0.3333333  -0.3333333), wk =   0.0555556
        k(   16) = (  -0.0000000   0.3333333  -0.1666667), wk =   0.0555556
        k(   17) = (   0.0000000  -0.5000000  -0.0000000), wk =   0.0277778
        k(   18) = (   0.0000000  -0.5000000   0.1666667), wk =   0.0555556
        k(   19) = (   0.0000000  -0.5000000   0.3333333), wk =   0.0555556
        k(   20) = (   0.0000000  -0.5000000  -0.5000000), wk =   0.0277778
        k(   21) = (   0.1666667   0.1666667   0.0000000), wk =   0.0555556
        k(   22) = (   0.1666667   0.1666667   0.1666667), wk =   0.1111111
        k(   23) = (   0.1666667   0.1666667   0.3333333), wk =   0.1111111
        k(   24) = (   0.1666667   0.1666667  -0.5000000), wk =   0.0555556
        k(   25) = (   0.1666667   0.3333333   0.0000000), wk =   0.1111111
        k(   26) = (   0.1666667   0.3333333   0.1666667), wk =   0.1111111
        k(   27) = (   0.1666667   0.3333333   0.3333333), wk =   0.1111111
        k(   28) = (   0.1666667   0.3333333  -0.5000000), wk =   0.1111111
        k(   29) = (   0.1666667   0.3333333  -0.3333333), wk =   0.1111111
        k(   30) = (   0.1666667   0.3333333  -0.1666667), wk =   0.1111111
        k(   31) = (   0.3333333   0.3333333   0.0000000), wk =   0.0555556
        k(   32) = (   0.3333333   0.3333333   0.1666667), wk =   0.0555556

     Dense  grid:   631887 G-vectors     FFT dimensions: ( 180, 180, 180)

     Dynamical RAM for                 wfc:       7.91 MB

     Dynamical RAM for     wfc (w. buffer):      31.63 MB

     Dynamical RAM for           str. fact:       0.60 MB

     Dynamical RAM for           local pot:       0.00 MB

     Dynamical RAM for          nlocal pot:      14.91 MB

     Dynamical RAM for                qrad:       3.21 MB

     Dynamical RAM for          rho,v,vnew:       5.35 MB

     Dynamical RAM for               rhoin:       1.78 MB

     Dynamical RAM for            rho*nmix:       4.82 MB

     Dynamical RAM for           G-vectors:       1.28 MB

     Dynamical RAM for          h,s,v(r/c):       2.02 MB

     Dynamical RAM for          <psi|beta>:       1.27 MB

     Dynamical RAM for                 psi:      15.82 MB

     Dynamical RAM for                hpsi:      15.82 MB

     Dynamical RAM for      wfcinit/wfcrot:      16.83 MB

     Estimated static dynamical RAM per process >      67.10 MB

     Estimated max dynamical RAM per process >     106.84 MB

     Estimated total dynamical RAM >      38.41 GB

     Initial potential from superposition of free atoms

     starting charge     348.9150, renormalised to     350.0000
     Starting wfcs are random

     total cpu time spent up to now is        5.9 secs

     per-process dynamical memory:   209.8 Mb

     Self-consistent Calculation

     iteration #  1     ecut=   100.00 Ry     beta= 0.70
     Davidson diagonalization with overlap

---- Real-time Memory Report at c_bands before calling an iterative solver
           308 MiB given to the printing process from OS
           204 MiB allocation reported by mallinfo(arena+hblkhd)
        298286 MiB available memory on the node where the printing process lives
------------------
     ethr =  1.00E-02,  avg # of iterations = 11.0

     Threshold (ethr) on eigenvalues was too large:
     Diagonalizing with lowered threshold

     Davidson diagonalization with overlap

---- Real-time Memory Report at c_bands before calling an iterative solver
           349 MiB given to the printing process from OS
           207 MiB allocation reported by mallinfo(arena+hblkhd)
        298352 MiB available memory on the node where the printing process lives
------------------
     ethr =  4.32E-04,  avg # of iterations =  3.6

     total cpu time spent up to now is       47.1 secs

     total energy              =   -3864.11980595 Ry
     estimated scf accuracy    <       1.49211752 Ry

     iteration #  2     ecut=   100.00 Ry     beta= 0.70
     Davidson diagonalization with overlap

---- Real-time Memory Report at c_bands before calling an iterative solver
           349 MiB given to the printing process from OS
           230 MiB allocation reported by mallinfo(arena+hblkhd)
        294562 MiB available memory on the node where the printing process lives
------------------
     ethr =  4.26E-04,  avg # of iterations = 12.8

     total cpu time spent up to now is       62.2 secs

     total energy              =   -3863.75297933 Ry
     estimated scf accuracy    <       8.84155504 Ry

     iteration #  3     ecut=   100.00 Ry     beta= 0.70
     Davidson diagonalization with overlap

---- Real-time Memory Report at c_bands before calling an iterative solver
           352 MiB given to the printing process from OS
           231 MiB allocation reported by mallinfo(arena+hblkhd)
        294577 MiB available memory on the node where the printing process lives
------------------
     ethr =  4.26E-04,  avg # of iterations = 13.0

     total cpu time spent up to now is       79.0 secs

     total energy              =   -3864.96870725 Ry
     estimated scf accuracy    <       0.11423325 Ry

     iteration #  4     ecut=   100.00 Ry     beta= 0.70
     Davidson diagonalization with overlap

---- Real-time Memory Report at c_bands before calling an iterative solver
           353 MiB given to the printing process from OS
           232 MiB allocation reported by mallinfo(arena+hblkhd)
        294337 MiB available memory on the node where the printing process lives
------------------
     ethr =  3.26E-05,  avg # of iterations = 11.5

     total cpu time spent up to now is       93.6 secs

     total energy              =   -3864.97127132 Ry
     estimated scf accuracy    <       0.34917472 Ry

     iteration #  5     ecut=   100.00 Ry     beta= 0.70
     Davidson diagonalization with overlap

---- Real-time Memory Report at c_bands before calling an iterative solver
           354 MiB given to the printing process from OS
           233 MiB allocation reported by mallinfo(arena+hblkhd)
        294362 MiB available memory on the node where the printing process lives
------------------
     ethr =  3.26E-05,  avg # of iterations = 11.9

     total cpu time spent up to now is      108.6 secs

     total energy              =   -3865.01447146 Ry
     estimated scf accuracy    <       0.01022205 Ry

     iteration #  6     ecut=   100.00 Ry     beta= 0.70
     Davidson diagonalization with overlap

---- Real-time Memory Report at c_bands before calling an iterative solver
           355 MiB given to the printing process from OS
           234 MiB allocation reported by mallinfo(arena+hblkhd)
        294300 MiB available memory on the node where the printing process lives
------------------
     ethr =  2.92E-06,  avg # of iterations =  8.4

     total cpu time spent up to now is      124.2 secs

     total energy              =   -3865.01648735 Ry
     estimated scf accuracy    <       0.00108040 Ry

     iteration #  7     ecut=   100.00 Ry     beta= 0.70
     Davidson diagonalization with overlap

---- Real-time Memory Report at c_bands before calling an iterative solver
           355 MiB given to the printing process from OS
           234 MiB allocation reported by mallinfo(arena+hblkhd)
        294419 MiB available memory on the node where the printing process lives
------------------
     ethr =  3.09E-07,  avg # of iterations =  9.1

     total cpu time spent up to now is      137.6 secs

     total energy              =   -3865.01665361 Ry
     estimated scf accuracy    <       0.00010061 Ry

     iteration #  8     ecut=   100.00 Ry     beta= 0.70
     Davidson diagonalization with overlap

---- Real-time Memory Report at c_bands before calling an iterative solver
           357 MiB given to the printing process from OS
           235 MiB allocation reported by mallinfo(arena+hblkhd)
        294397 MiB available memory on the node where the printing process lives
------------------
     ethr =  2.87E-08,  avg # of iterations =  9.2

     total cpu time spent up to now is      150.4 secs

     total energy              =   -3865.01667343 Ry
     estimated scf accuracy    <       0.00001006 Ry

     iteration #  9     ecut=   100.00 Ry     beta= 0.70
     Davidson diagonalization with overlap

---- Real-time Memory Report at c_bands before calling an iterative solver
           357 MiB given to the printing process from OS
           236 MiB allocation reported by mallinfo(arena+hblkhd)
        294352 MiB available memory on the node where the printing process lives
------------------
     ethr =  2.87E-09,  avg # of iterations = 10.1

     total cpu time spent up to now is      163.4 secs

     total energy              =   -3865.01667593 Ry
     estimated scf accuracy    <       0.00000087 Ry

     iteration # 10     ecut=   100.00 Ry     beta= 0.70
     Davidson diagonalization with overlap

---- Real-time Memory Report at c_bands before calling an iterative solver
           357 MiB given to the printing process from OS
           236 MiB allocation reported by mallinfo(arena+hblkhd)
        294298 MiB available memory on the node where the printing process lives
------------------
     ethr =  2.49E-10,  avg # of iterations =  9.1

     total cpu time spent up to now is      176.8 secs

     total energy              =   -3865.01667613 Ry
     estimated scf accuracy    <       0.00000007 Ry

     iteration # 11     ecut=   100.00 Ry     beta= 0.70
     Davidson diagonalization with overlap

---- Real-time Memory Report at c_bands before calling an iterative solver
           360 MiB given to the printing process from OS
           236 MiB allocation reported by mallinfo(arena+hblkhd)
        294300 MiB available memory on the node where the printing process lives
------------------
     ethr =  2.10E-11,  avg # of iterations =  9.2

     total cpu time spent up to now is      191.2 secs

     total energy              =   -3865.01667615 Ry
     estimated scf accuracy    <          9.6E-09 Ry

     iteration # 12     ecut=   100.00 Ry     beta= 0.70
     Davidson diagonalization with overlap

---- Real-time Memory Report at c_bands before calling an iterative solver
           360 MiB given to the printing process from OS
           236 MiB allocation reported by mallinfo(arena+hblkhd)
        294316 MiB available memory on the node where the printing process lives
------------------
     ethr =  2.73E-12,  avg # of iterations =  9.0

     total cpu time spent up to now is      204.8 secs

     total energy              =   -3865.01667615 Ry
     estimated scf accuracy    <          1.7E-09 Ry

     iteration # 13     ecut=   100.00 Ry     beta= 0.70
     Davidson diagonalization with overlap

---- Real-time Memory Report at c_bands before calling an iterative solver
           360 MiB given to the printing process from OS
           236 MiB allocation reported by mallinfo(arena+hblkhd)
        294325 MiB available memory on the node where the printing process lives
------------------
     ethr =  4.77E-13,  avg # of iterations =  8.7

     total cpu time spent up to now is      217.7 secs

     total energy              =   -3865.01667615 Ry
     estimated scf accuracy    <          1.5E-09 Ry

     iteration # 14     ecut=   100.00 Ry     beta= 0.70
     Davidson diagonalization with overlap

---- Real-time Memory Report at c_bands before calling an iterative solver
           360 MiB given to the printing process from OS
           236 MiB allocation reported by mallinfo(arena+hblkhd)
        294303 MiB available memory on the node where the printing process lives
------------------
     ethr =  4.40E-13,  avg # of iterations =  6.3

     total cpu time spent up to now is      229.7 secs

     total energy              =   -3865.01667615 Ry
     estimated scf accuracy    <          6.0E-11 Ry

     iteration # 15     ecut=   100.00 Ry     beta= 0.70
     Davidson diagonalization with overlap

---- Real-time Memory Report at c_bands before calling an iterative solver
           360 MiB given to the printing process from OS
           236 MiB allocation reported by mallinfo(arena+hblkhd)
        294294 MiB available memory on the node where the printing process lives
------------------
     ethr =  1.00E-13,  avg # of iterations =  6.5

     total cpu time spent up to now is      239.6 secs

     total energy              =   -3865.01667615 Ry
     estimated scf accuracy    <          9.9E-12 Ry

     iteration # 16     ecut=   100.00 Ry     beta= 0.70
     Davidson diagonalization with overlap

---- Real-time Memory Report at c_bands before calling an iterative solver
           360 MiB given to the printing process from OS
           236 MiB allocation reported by mallinfo(arena+hblkhd)
        294276 MiB available memory on the node where the printing process lives
------------------
     ethr =  1.00E-13,  avg # of iterations =  1.8

     total cpu time spent up to now is      248.2 secs

     End of self-consistent calculation

          k = 0.0000 0.0000 0.0000 ( 78827 PWs)   bands (ev):

   -44.8143 -44.8143 -44.7683 -44.7683 -44.7683 -44.7683 -35.7259 -35.7259
   -35.7209 -35.7209 -35.7209 -35.7209 -35.6712 -35.6712 -35.6712 -35.6712
   -35.1594 -35.1594 -35.1591 -35.1591 -35.1588 -35.1583 -35.1476 -35.1474
   -35.1472 -35.1472 -35.1471 -35.1471 -35.0747 -35.0747 -35.0747 -35.0747
   -35.0668 -35.0662 -35.0647 -35.0647 -35.0645 -35.0645 -35.0445 -35.0445
   -35.0442 -35.0442 -35.0429 -35.0422 -35.0315 -35.0311 -35.0307 -35.0307
   -35.0305 -35.0305 -35.0177 -35.0177 -35.0177 -35.0177 -34.9977 -34.9977
   -34.5879 -34.5879 -34.5874 -34.5874 -34.5874 -34.5874 -34.5824 -34.5824
   -34.5823 -34.5823 -34.5815 -34.5813 -34.5148 -34.5148 -34.5148 -34.5148
   -34.5127 -34.5127 -34.4551 -34.4550 -34.4532 -34.4532 -34.4532 -34.4532
   -34.4490 -34.4489 -34.4480 -34.4480 -34.4480 -34.4480 -21.0677 -21.0677
   -20.9698 -20.9698 -20.9697 -20.9697 -20.9548 -20.9548 -20.9107 -20.9107
   -20.9107 -20.9107 -20.7599 -20.7599 -20.6261 -20.6261 -20.6261 -20.6261
    -3.7020  -3.4840  -3.3073  -3.1160  -2.6210  -2.6210  -2.5260  -2.5056
    -2.4834  -2.4834  -2.3245  -2.3160  -1.9868  -1.9868  -1.9286  -1.9286
     4.8060   4.8060   4.9167   4.9390   4.9390   5.2158   5.2937   5.5318
     5.5318   5.5989   5.7686   5.7686   5.8134   6.0955   6.2030   6.3555
     6.5571   6.5571   6.9213   6.9213   7.3331   7.4827   7.4827   7.5214
     7.6409   7.6409   7.6411   7.7426   7.7426   7.8392   7.8392   7.8417
     7.9015   7.9015   7.9155   7.9986   8.2171   8.3018   8.3018   8.8723
     8.8723   8.9427   8.9427   9.1656   9.3391   9.5329   9.6550   9.6550
     9.6721   9.6721   9.9539   9.9539  10.0812  10.0812  10.5504  11.0223
    11.6406  11.6406  11.6626  11.6626  11.9932  12.1259  12.2475  12.2475
    12.4542  12.4542  12.5866  12.7199  12.7199  12.7302  12.7302  12.7850
    12.9441  12.9441  12.9856  12.9856  13.2047  13.4982  14.0765  14.3780
    14.3780  14.3846  14.8471  14.8630  14.8630  15.3536  15.3536  15.6671
    15.7156  15.7792

     occupation numbers 
     1.0000   1.0000   1.0000   1.0000   1.0000   1.0000   1.0000   1.0000
     1.0000   1.0000   1.0000   1.0000   1.0000   1.0000   1.0000   1.0000
     1.0000   1.0000   1.0000   1.0000   1.0000   1.0000   1.0000   1.0000
     1.0000   1.0000   1.0000   1.0000   1.0000   1.0000   1.0000   1.0000
     1.0000   1.0000   1.0000   1.0000   1.0000   1.0000   1.0000   1.0000
     1.0000   1.0000   1.0000   1.0000   1.0000   1.0000   1.0000   1.0000
     1.0000   1.0000   1.0000   1.0000   1.0000   1.0000   1.0000   1.0000
     1.0000   1.0000   1.0000   1.0000   1.0000   1.0000   1.0000   1.0000
     1.0000   1.0000   1.0000   1.0000   1.0000   1.0000   1.0000   1.0000
     1.0000   1.0000   1.0000   1.0000   1.0000   1.0000   1.0000   1.0000
     1.0000   1.0000   1.0000   1.0000   1.0000   1.0000   1.0000   1.0000
     1.0000   1.0000   1.0000   1.0000   1.0000   1.0000   1.0000   1.0000
     1.0000   1.0000   1.0000   1.0000   1.0000   1.0000   1.0000   1.0000
     1.0000   1.0000   1.0000   1.0000   1.0000   1.0000   1.0000   1.0000
     1.0000   1.0000   1.0000   1.0000   1.0000   1.0000   1.0000   1.0000
     1.0000   1.0000   1.0000   1.0000   1.0000   1.0000   1.0000   1.0000
     1.0000   1.0000   1.0000   1.0000   1.0000   1.0000   1.0000   1.0000
     1.0000   1.0000   1.0000   1.0000   1.0000   1.0000   1.0000   1.0000
     1.0000   1.0000   1.0000   1.0000   1.0000   1.0000   1.0000   1.0000
     1.0000   1.0000   1.0000   1.0000   1.0000   1.0000   1.0000   1.0000
     1.0000   1.0000   1.0000   1.0000   1.0000   1.0000   1.0000   1.0000
     1.0000   1.0000   1.0000   1.0000   1.0000   1.0000   1.0000   0.0000
     0.0000   0.0000   0.0000   0.0000   0.0000   0.0000   0.0000   0.0000
     0.0000   0.0000   0.0000   0.0000   0.0000   0.0000   0.0000   0.0000
     0.0000   0.0000   0.0000   0.0000   0.0000   0.0000   0.0000   0.0000
     0.0000   0.0000   0.0000   0.0000   0.0000   0.0000   0.0000   0.0000
     0.0000   0.0000

          k = 0.0000 0.0000 0.0925 ( 78938 PWs)   bands (ev):

   -44.8143 -44.8143 -44.7683 -44.7683 -44.7683 -44.7683 -35.7259 -35.7259
   -35.7209 -35.7209 -35.7209 -35.7209 -35.6712 -35.6712 -35.6712 -35.6712
   -35.1594 -35.1594 -35.1591 -35.1591 -35.1588 -35.1583 -35.1476 -35.1474
   -35.1472 -35.1472 -35.1471 -35.1471 -35.0747 -35.0747 -35.0747 -35.0747
   -35.0668 -35.0662 -35.0647 -35.0647 -35.0645 -35.0645 -35.0445 -35.0445
   -35.0442 -35.0442 -35.0429 -35.0422 -35.0315 -35.0311 -35.0307 -35.0307
   -35.0305 -35.0305 -35.0177 -35.0177 -35.0177 -35.0177 -34.9977 -34.9977
   -34.5879 -34.5879 -34.5874 -34.5874 -34.5874 -34.5874 -34.5824 -34.5824
   -34.5823 -34.5823 -34.5815 -34.5813 -34.5148 -34.5148 -34.5148 -34.5148
   -34.5127 -34.5127 -34.4551 -34.4550 -34.4532 -34.4532 -34.4532 -34.4532
   -34.4490 -34.4489 -34.4480 -34.4480 -34.4480 -34.4480 -21.0677 -21.0677
   -20.9698 -20.9698 -20.9697 -20.9697 -20.9548 -20.9548 -20.9107 -20.9107
   -20.9107 -20.9107 -20.7599 -20.7599 -20.6261 -20.6261 -20.6261 -20.6261
    -3.6929  -3.5078  -3.2955  -3.1096  -2.6210  -2.6210  -2.5281  -2.5075
    -2.4834  -2.4834  -2.3238  -2.3164  -1.9868  -1.9868  -1.9286  -1.9286
     4.8061   4.8061   4.9337   4.9337   4.9467   5.2062   5.3067   5.5382
     5.5382   5.6142   5.7650   5.7810   5.7810   5.9416   6.2501   6.4721
     6.5386   6.5386   6.9196   6.9196   7.3385   7.4347   7.4347   7.5103
     7.5658   7.6716   7.6716   7.7499   7.7499   7.8325   7.8325   7.8769
     7.9458   7.9458   8.0105   8.0151   8.2060   8.2867   8.2867   8.8761
     8.8761   8.9399   8.9399   9.0504   9.3780   9.5120   9.6521   9.6521
     9.6781   9.6781   9.9458   9.9458  10.0780  10.0780  10.5964  11.0003
    11.6362  11.6362  11.6665  11.6665  11.9639  12.1708  12.2602  12.2602
    12.4410  12.4410  12.5867  12.6914  12.6914  12.7536  12.7536  12.7812
    12.9159  12.9159  13.0310  13.0310  13.2258  13.4794  14.0881  14.3162
    14.3162  14.3243  14.9038  14.9038  14.9710  15.2486  15.2486  15.4431
    15.7837  15.7837

     occupation numbers 
     1.0000   1.0000   1.0000   1.0000   1.0000   1.0000   1.0000   1.0000
     1.0000   1.0000   1.0000   1.0000   1.0000   1.0000   1.0000   1.0000
     1.0000   1.0000   1.0000   1.0000   1.0000   1.0000   1.0000   1.0000
     1.0000   1.0000   1.0000   1.0000   1.0000   1.0000   1.0000   1.0000
     1.0000   1.0000   1.0000   1.0000   1.0000   1.0000   1.0000   1.0000
     1.0000   1.0000   1.0000   1.0000   1.0000   1.0000   1.0000   1.0000
     1.0000   1.0000   1.0000   1.0000   1.0000   1.0000   1.0000   1.0000
     1.0000   1.0000   1.0000   1.0000   1.0000   1.0000   1.0000   1.0000
     1.0000   1.0000   1.0000   1.0000   1.0000   1.0000   1.0000   1.0000
     1.0000   1.0000   1.0000   1.0000   1.0000   1.0000   1.0000   1.0000
     1.0000   1.0000   1.0000   1.0000   1.0000   1.0000   1.0000   1.0000
     1.0000   1.0000   1.0000   1.0000   1.0000   1.0000   1.0000   1.0000
     1.0000   1.0000   1.0000   1.0000   1.0000   1.0000   1.0000   1.0000
     1.0000   1.0000   1.0000   1.0000   1.0000   1.0000   1.0000   1.0000
     1.0000   1.0000   1.0000   1.0000   1.0000   1.0000   1.0000   1.0000
     1.0000   1.0000   1.0000   1.0000   1.0000   1.0000   1.0000   1.0000
     1.0000   1.0000   1.0000   1.0000   1.0000   1.0000   1.0000   1.0000
     1.0000   1.0000   1.0000   1.0000   1.0000   1.0000   1.0000   1.0000
     1.0000   1.0000   1.0000   1.0000   1.0000   1.0000   1.0000   1.0000
     1.0000   1.0000   1.0000   1.0000   1.0000   1.0000   1.0000   1.0000
     1.0000   1.0000   1.0000   1.0000   1.0000   1.0000   1.0000   1.0000
     1.0000   1.0000   1.0000   1.0000   1.0000   1.0000   1.0000   0.0000
     0.0000   0.0000   0.0000   0.0000   0.0000   0.0000   0.0000   0.0000
     0.0000   0.0000   0.0000   0.0000   0.0000   0.0000   0.0000   0.0000
     0.0000   0.0000   0.0000   0.0000   0.0000   0.0000   0.0000   0.0000
     0.0000   0.0000   0.0000   0.0000   0.0000   0.0000   0.0000   0.0000
     0.0000   0.0000

          k = 0.0000 0.0000 0.1850 ( 78959 PWs)   bands (ev):

   -44.8143 -44.8143 -44.7683 -44.7683 -44.7683 -44.7683 -35.7259 -35.7259
   -35.7209 -35.7209 -35.7209 -35.7209 -35.6712 -35.6712 -35.6712 -35.6712
   -35.1594 -35.1594 -35.1591 -35.1591 -35.1588 -35.1583 -35.1476 -35.1474
   -35.1472 -35.1472 -35.1471 -35.1471 -35.0747 -35.0747 -35.0747 -35.0747
   -35.0668 -35.0662 -35.0647 -35.0647 -35.0645 -35.0645 -35.0445 -35.0445
   -35.0442 -35.0442 -35.0429 -35.0422 -35.0315 -35.0311 -35.0307 -35.0307
   -35.0305 -35.0305 -35.0177 -35.0177 -35.0177 -35.0177 -34.9977 -34.9977
   -34.5879 -34.5879 -34.5874 -34.5874 -34.5874 -34.5874 -34.5824 -34.5824
   -34.5823 -34.5823 -34.5815 -34.5813 -34.5148 -34.5148 -34.5148 -34.5148
   -34.5127 -34.5127 -34.4551 -34.4550 -34.4532 -34.4532 -34.4532 -34.4532
   -34.4490 -34.4489 -34.4480 -34.4480 -34.4480 -34.4480 -21.0677 -21.0677
   -20.9698 -20.9698 -20.9697 -20.9697 -20.9548 -20.9548 -20.9107 -20.9107
   -20.9107 -20.9107 -20.7599 -20.7599 -20.6261 -20.6261 -20.6261 -20.6261
    -3.6674  -3.5565  -3.2786  -3.0961  -2.6210  -2.6210  -2.5334  -2.5102
    -2.4834  -2.4834  -2.3220  -2.3177  -1.9867  -1.9867  -1.9287  -1.9287
     4.8064   4.8064   4.9234   4.9234   5.0163   5.2074   5.3253   5.5498
     5.5498   5.6048   5.6594   5.8074   5.8090   5.8090   6.2968   6.4988
     6.4988   6.5990   6.9161   6.9161   7.3515   7.3741   7.3741   7.4866
     7.4969   7.7063   7.7063   7.7506   7.7506   7.8297   7.8297   7.8749
     8.0454   8.0454   8.0548   8.1766   8.2401   8.2401   8.2477   8.8170
     8.8869   8.8869   8.9314   8.9314   9.3823   9.5017   9.6475   9.6475
     9.6901   9.6901   9.9273   9.9273  10.0723  10.0723  10.7019  10.9376
    11.6300  11.6300  11.6713  11.6713  11.9282  12.2383  12.2963  12.2963
    12.4026  12.4026  12.5871  12.6688  12.6688  12.7695  12.7695  12.7742
    12.8917  12.8917  13.0885  13.0885  13.2811  13.4281  14.0886  14.2356
    14.2356  14.2721  14.8158  14.8158  15.1496  15.3196  15.3196  15.3266
    15.7305  15.7305

     occupation numbers 
     1.0000   1.0000   1.0000   1.0000   1.0000   1.0000   1.0000   1.0000
     1.0000   1.0000   1.0000   1.0000   1.0000   1.0000   1.0000   1.0000
     1.0000   1.0000   1.0000   1.0000   1.0000   1.0000   1.0000   1.0000
     1.0000   1.0000   1.0000   1.0000   1.0000   1.0000   1.0000   1.0000
     1.0000   1.0000   1.0000   1.0000   1.0000   1.0000   1.0000   1.0000
     1.0000   1.0000   1.0000   1.0000   1.0000   1.0000   1.0000   1.0000
     1.0000   1.0000   1.0000   1.0000   1.0000   1.0000   1.0000   1.0000
     1.0000   1.0000   1.0000   1.0000   1.0000   1.0000   1.0000   1.0000
     1.0000   1.0000   1.0000   1.0000   1.0000   1.0000   1.0000   1.0000
     1.0000   1.0000   1.0000   1.0000   1.0000   1.0000   1.0000   1.0000
     1.0000   1.0000   1.0000   1.0000   1.0000   1.0000   1.0000   1.0000
     1.0000   1.0000   1.0000   1.0000   1.0000   1.0000   1.0000   1.0000
     1.0000   1.0000   1.0000   1.0000   1.0000   1.0000   1.0000   1.0000
     1.0000   1.0000   1.0000   1.0000   1.0000   1.0000   1.0000   1.0000
     1.0000   1.0000   1.0000   1.0000   1.0000   1.0000   1.0000   1.0000
     1.0000   1.0000   1.0000   1.0000   1.0000   1.0000   1.0000   1.0000
     1.0000   1.0000   1.0000   1.0000   1.0000   1.0000   1.0000   1.0000
     1.0000   1.0000   1.0000   1.0000   1.0000   1.0000   1.0000   1.0000
     1.0000   1.0000   1.0000   1.0000   1.0000   1.0000   1.0000   1.0000
     1.0000   1.0000   1.0000   1.0000   1.0000   1.0000   1.0000   1.0000
     1.0000   1.0000   1.0000   1.0000   1.0000   1.0000   1.0000   1.0000
     1.0000   1.0000   1.0000   1.0000   1.0000   1.0000   1.0000   0.0048
     0.0000   0.0000   0.0000   0.0000   0.0000   0.0000   0.0000   0.0000
     0.0000   0.0000   0.0000   0.0000   0.0000   0.0000   0.0000   0.0000
     0.0000   0.0000   0.0000   0.0000   0.0000   0.0000   0.0000   0.0000
     0.0000   0.0000   0.0000   0.0000   0.0000   0.0000   0.0000   0.0000
     0.0000   0.0000

          k = 0.0000 0.0000-0.2775 ( 78952 PWs)   bands (ev):

   -44.8143 -44.8143 -44.7683 -44.7683 -44.7683 -44.7683 -35.7259 -35.7259
   -35.7209 -35.7209 -35.7209 -35.7209 -35.6712 -35.6712 -35.6712 -35.6712
   -35.1594 -35.1594 -35.1591 -35.1591 -35.1588 -35.1583 -35.1476 -35.1474
   -35.1472 -35.1472 -35.1471 -35.1471 -35.0747 -35.0747 -35.0747 -35.0747
   -35.0668 -35.0662 -35.0647 -35.0647 -35.0645 -35.0645 -35.0445 -35.0445
   -35.0442 -35.0442 -35.0429 -35.0422 -35.0315 -35.0311 -35.0307 -35.0307
   -35.0305 -35.0305 -35.0177 -35.0177 -35.0177 -35.0177 -34.9977 -34.9977
   -34.5879 -34.5879 -34.5874 -34.5874 -34.5874 -34.5874 -34.5824 -34.5824
   -34.5823 -34.5823 -34.5815 -34.5813 -34.5148 -34.5148 -34.5148 -34.5148
   -34.5127 -34.5127 -34.4551 -34.4550 -34.4532 -34.4532 -34.4532 -34.4532
   -34.4490 -34.4489 -34.4480 -34.4480 -34.4480 -34.4480 -21.0677 -21.0677
   -20.9698 -20.9698 -20.9697 -20.9697 -20.9548 -20.9548 -20.9107 -20.9107
   -20.9107 -20.9107 -20.7599 -20.7599 -20.6261 -20.6261 -20.6261 -20.6261
    -3.6433  -3.5905  -3.2722  -3.0891  -2.6210  -2.6210  -2.5366  -2.5112
    -2.4834  -2.4834  -2.3199  -2.3195  -1.9867  -1.9867  -1.9287  -1.9287
     4.8066   4.8066   4.9184   4.9184   5.0539   5.2351   5.3345   5.4890
     5.5550   5.5550   5.7209   5.7281   5.8248   5.8248   6.3187   6.4775
     6.4775   6.6392   6.9143   6.9143   7.3515   7.3515   7.3597   7.4734
     7.4795   7.7275   7.7275   7.7391   7.7391   7.8303   7.8303   7.8712
     8.0848   8.1301   8.1301   8.1514   8.1802   8.1802   8.4877   8.5761
     8.8960   8.8960   8.9238   8.9238   9.3677   9.5080   9.6453   9.6453
     9.6965   9.6965   9.9168   9.9168  10.0699  10.0699  10.7898  10.8689
    11.6276  11.6276  11.6730  11.6730  11.9151  12.2678  12.3428  12.3428
    12.3545  12.3545  12.5872  12.6618  12.6618  12.7709  12.7745  12.7745
    12.8834  12.8834  13.1130  13.1130  13.3425  13.3685  14.0790  14.2077
    14.2077  14.2638  14.7461  14.7461  15.1663  15.3855  15.4105  15.4105
    15.6859  15.6859

     occupation numbers 
     1.0000   1.0000   1.0000   1.0000   1.0000   1.0000   1.0000   1.0000
     1.0000   1.0000   1.0000   1.0000   1.0000   1.0000   1.0000   1.0000
     1.0000   1.0000   1.0000   1.0000   1.0000   1.0000   1.0000   1.0000
     1.0000   1.0000   1.0000   1.0000   1.0000   1.0000   1.0000   1.0000
     1.0000   1.0000   1.0000   1.0000   1.0000   1.0000   1.0000   1.0000
     1.0000   1.0000   1.0000   1.0000   1.0000   1.0000   1.0000   1.0000
     1.0000   1.0000   1.0000   1.0000   1.0000   1.0000   1.0000   1.0000
     1.0000   1.0000   1.0000   1.0000   1.0000   1.0000   1.0000   1.0000
     1.0000   1.0000   1.0000   1.0000   1.0000   1.0000   1.0000   1.0000
     1.0000   1.0000   1.0000   1.0000   1.0000   1.0000   1.0000   1.0000
     1.0000   1.0000   1.0000   1.0000   1.0000   1.0000   1.0000   1.0000
     1.0000   1.0000   1.0000   1.0000   1.0000   1.0000   1.0000   1.0000
     1.0000   1.0000   1.0000   1.0000   1.0000   1.0000   1.0000   1.0000
     1.0000   1.0000   1.0000   1.0000   1.0000   1.0000   1.0000   1.0000
     1.0000   1.0000   1.0000   1.0000   1.0000   1.0000   1.0000   1.0000
     1.0000   1.0000   1.0000   1.0000   1.0000   1.0000   1.0000   1.0000
     1.0000   1.0000   1.0000   1.0000   1.0000   1.0000   1.0000   1.0000
     1.0000   1.0000   1.0000   1.0000   1.0000   1.0000   1.0000   1.0000
     1.0000   1.0000   1.0000   1.0000   1.0000   1.0000   1.0000   1.0000
     1.0000   1.0000   1.0000   1.0000   1.0000   1.0000   1.0000   1.0000
     1.0000   1.0000   1.0000   1.0000   1.0000   1.0000   1.0000   1.0000
     1.0000   1.0000   1.0000   1.0000   1.0000   1.0000   0.9438   0.2581
     0.0000   0.0000   0.0000   0.0000   0.0000   0.0000   0.0000   0.0000
     0.0000   0.0000   0.0000   0.0000   0.0000   0.0000   0.0000   0.0000
     0.0000   0.0000   0.0000   0.0000   0.0000   0.0000   0.0000   0.0000
     0.0000   0.0000   0.0000   0.0000   0.0000   0.0000   0.0000   0.0000
     0.0000   0.0000

          k =-0.0962 0.1667-0.0308 ( 78951 PWs)   bands (ev):

   -44.8143 -44.8143 -44.7683 -44.7683 -44.7683 -44.7683 -35.7259 -35.7259
   -35.7209 -35.7209 -35.7209 -35.7209 -35.6712 -35.6712 -35.6712 -35.6712
   -35.1594 -35.1594 -35.1591 -35.1591 -35.1588 -35.1583 -35.1476 -35.1474
   -35.1472 -35.1472 -35.1471 -35.1471 -35.0747 -35.0747 -35.0747 -35.0747
   -35.0667 -35.0661 -35.0649 -35.0647 -35.0646 -35.0645 -35.0445 -35.0444
   -35.0442 -35.0441 -35.0430 -35.0424 -35.0315 -35.0311 -35.0308 -35.0307
   -35.0305 -35.0305 -35.0177 -35.0177 -35.0177 -35.0177 -34.9977 -34.9977
   -34.5879 -34.5879 -34.5874 -34.5874 -34.5874 -34.5874 -34.5824 -34.5823
   -34.5823 -34.5822 -34.5815 -34.5814 -34.5148 -34.5148 -34.5147 -34.5147
   -34.5128 -34.5128 -34.4550 -34.4549 -34.4533 -34.4533 -34.4532 -34.4532
   -34.4490 -34.4489 -34.4481 -34.4480 -34.4480 -34.4480 -21.0667 -21.0667
   -20.9696 -20.9696 -20.9690 -20.9690 -20.9544 -20.9544 -20.9110 -20.9110
   -20.9107 -20.9107 -20.7604 -20.7604 -20.6276 -20.6276 -20.6264 -20.6264
    -3.6584  -3.4608  -3.2823  -3.0961  -2.6843  -2.6262  -2.5436  -2.5389
    -2.4992  -2.4848  -2.3287  -2.3042  -2.0122  -1.9874  -1.9560  -1.9262
     4.8853   4.9082   4.9429   5.0386   5.1883   5.3296   5.4330   5.4826
     5.5695   5.7477   5.8094   5.8428   5.8860   6.1073   6.2197   6.4294
     6.5176   6.5180   6.8726   6.8909   7.2199   7.2681   7.4150   7.4224
     7.4511   7.5014   7.6385   7.6591   7.6613   7.7754   7.7781   7.8852
     7.9118   7.9774   7.9861   8.1091   8.1340   8.1725   8.3178   8.6456
     8.7359   8.8438   8.9697   9.1617   9.2569   9.3750   9.4122   9.4545
     9.5448   9.6495   9.9044   9.9111  10.0296  10.0818  10.5871  11.0953
    11.6322  11.6534  11.6554  11.6711  11.9887  12.1280  12.2289  12.2346
    12.4219  12.4305  12.4770  12.5982  12.5992  12.6664  12.7310  12.7390
    13.0094  13.0304  13.0544  13.1864  13.3309  13.3783  14.3076  14.5657
    14.6145  14.6443  15.1214  15.1606  15.2012  15.3529  15.7083  15.7666
    15.8719  15.8927

     occupation numbers 
     1.0000   1.0000   1.0000   1.0000   1.0000   1.0000   1.0000   1.0000
     1.0000   1.0000   1.0000   1.0000   1.0000   1.0000   1.0000   1.0000
     1.0000   1.0000   1.0000   1.0000   1.0000   1.0000   1.0000   1.0000
     1.0000   1.0000   1.0000   1.0000   1.0000   1.0000   1.0000   1.0000
     1.0000   1.0000   1.0000   1.0000   1.0000   1.0000   1.0000   1.0000
     1.0000   1.0000   1.0000   1.0000   1.0000   1.0000   1.0000   1.0000
     1.0000   1.0000   1.0000   1.0000   1.0000   1.0000   1.0000   1.0000
     1.0000   1.0000   1.0000   1.0000   1.0000   1.0000   1.0000   1.0000
     1.0000   1.0000   1.0000   1.0000   1.0000   1.0000   1.0000   1.0000
     1.0000   1.0000   1.0000   1.0000   1.0000   1.0000   1.0000   1.0000
     1.0000   1.0000   1.0000   1.0000   1.0000   1.0000   1.0000   1.0000
     1.0000   1.0000   1.0000   1.0000   1.0000   1.0000   1.0000   1.0000
     1.0000   1.0000   1.0000   1.0000   1.0000   1.0000   1.0000   1.0000
     1.0000   1.0000   1.0000   1.0000   1.0000   1.0000   1.0000   1.0000
     1.0000   1.0000   1.0000   1.0000   1.0000   1.0000   1.0000   1.0000
     1.0000   1.0000   1.0000   1.0000   1.0000   1.0000   1.0000   1.0000
     1.0000   1.0000   1.0000   1.0000   1.0000   1.0000   1.0000   1.0000
     1.0000   1.0000   1.0000   1.0000   1.0000   1.0000   1.0000   1.0000
     1.0000   1.0000   1.0000   1.0000   1.0000   1.0000   1.0000   1.0000
     1.0000   1.0000   1.0000   1.0000   1.0000   1.0000   1.0000   1.0000
     1.0000   1.0000   1.0000   1.0000   1.0000   1.0000   1.0000   1.0000
     1.0000   1.0000   1.0000   1.0000   1.0000   1.0000   1.0000   0.0000
     0.0000   0.0000   0.0000   0.0000   0.0000   0.0000   0.0000   0.0000
     0.0000   0.0000   0.0000   0.0000   0.0000   0.0000   0.0000   0.0000
     0.0000   0.0000   0.0000   0.0000   0.0000   0.0000   0.0000   0.0000
     0.0000   0.0000   0.0000   0.0000   0.0000   0.0000   0.0000   0.0000
     0.0000   0.0000

          k =-0.0962 0.1667 0.0617 ( 78962 PWs)   bands (ev):

   -44.8143 -44.8143 -44.7683 -44.7683 -44.7683 -44.7683 -35.7259 -35.7259
   -35.7209 -35.7209 -35.7209 -35.7209 -35.6712 -35.6712 -35.6712 -35.6712
   -35.1594 -35.1594 -35.1591 -35.1591 -35.1588 -35.1583 -35.1476 -35.1474
   -35.1472 -35.1472 -35.1471 -35.1471 -35.0747 -35.0747 -35.0747 -35.0747
   -35.0667 -35.0661 -35.0649 -35.0647 -35.0646 -35.0645 -35.0445 -35.0444
   -35.0442 -35.0441 -35.0430 -35.0424 -35.0315 -35.0311 -35.0308 -35.0307
   -35.0305 -35.0305 -35.0177 -35.0177 -35.0177 -35.0177 -34.9977 -34.9977
   -34.5879 -34.5879 -34.5874 -34.5874 -34.5874 -34.5874 -34.5824 -34.5823
   -34.5823 -34.5822 -34.5815 -34.5814 -34.5148 -34.5148 -34.5147 -34.5147
   -34.5128 -34.5128 -34.4550 -34.4549 -34.4533 -34.4533 -34.4532 -34.4532
   -34.4490 -34.4489 -34.4481 -34.4480 -34.4480 -34.4480 -21.0667 -21.0667
   -20.9696 -20.9696 -20.9690 -20.9690 -20.9544 -20.9544 -20.9110 -20.9110
   -20.9107 -20.9107 -20.7604 -20.7604 -20.6276 -20.6276 -20.6264 -20.6264
    -3.6556  -3.4677  -3.2798  -3.0936  -2.6836  -2.6261  -2.5482  -2.5368
    -2.4980  -2.4849  -2.3282  -2.3049  -2.0128  -1.9873  -1.9555  -1.9263
     4.9030   4.9075   4.9287   5.0324   5.1950   5.3448   5.4212   5.4889
     5.5624   5.7506   5.8174   5.8503   5.8550   6.0773   6.2334   6.4575
     6.4860   6.5604   6.8588   6.8891   7.2779   7.2849   7.3312   7.3798
     7.4715   7.4839   7.6440   7.6485   7.6804   7.7616   7.7666   7.9070
     7.9449   7.9916   7.9973   8.0894   8.1323   8.2059   8.3081   8.6460
     8.7500   8.8416   8.9704   9.1049   9.2491   9.3881   9.4151   9.4595
     9.5385   9.6624   9.8932   9.9216  10.0367  10.0676  10.6019  11.0914
    11.6276  11.6534  11.6595  11.6671  11.9721  12.1514  12.2026  12.2800
    12.3724  12.4374  12.5023  12.5970  12.6006  12.6518  12.7088  12.7474
    13.0009  13.0709  13.0941  13.1647  13.2873  13.4044  14.3396  14.5299
    14.5738  14.6362  15.0390  15.1588  15.3066  15.4182  15.5357  15.6956
    15.9301  15.9432

     occupation numbers 
     1.0000   1.0000   1.0000   1.0000   1.0000   1.0000   1.0000   1.0000
     1.0000   1.0000   1.0000   1.0000   1.0000   1.0000   1.0000   1.0000
     1.0000   1.0000   1.0000   1.0000   1.0000   1.0000   1.0000   1.0000
     1.0000   1.0000   1.0000   1.0000   1.0000   1.0000   1.0000   1.0000
     1.0000   1.0000   1.0000   1.0000   1.0000   1.0000   1.0000   1.0000
     1.0000   1.0000   1.0000   1.0000   1.0000   1.0000   1.0000   1.0000
     1.0000   1.0000   1.0000   1.0000   1.0000   1.0000   1.0000   1.0000
     1.0000   1.0000   1.0000   1.0000   1.0000   1.0000   1.0000   1.0000
     1.0000   1.0000   1.0000   1.0000   1.0000   1.0000   1.0000   1.0000
     1.0000   1.0000   1.0000   1.0000   1.0000   1.0000   1.0000   1.0000
     1.0000   1.0000   1.0000   1.0000   1.0000   1.0000   1.0000   1.0000
     1.0000   1.0000   1.0000   1.0000   1.0000   1.0000   1.0000   1.0000
     1.0000   1.0000   1.0000   1.0000   1.0000   1.0000   1.0000   1.0000
     1.0000   1.0000   1.0000   1.0000   1.0000   1.0000   1.0000   1.0000
     1.0000   1.0000   1.0000   1.0000   1.0000   1.0000   1.0000   1.0000
     1.0000   1.0000   1.0000   1.0000   1.0000   1.0000   1.0000   1.0000
     1.0000   1.0000   1.0000   1.0000   1.0000   1.0000   1.0000   1.0000
     1.0000   1.0000   1.0000   1.0000   1.0000   1.0000   1.0000   1.0000
     1.0000   1.0000   1.0000   1.0000   1.0000   1.0000   1.0000   1.0000
     1.0000   1.0000   1.0000   1.0000   1.0000   1.0000   1.0000   1.0000
     1.0000   1.0000   1.0000   1.0000   1.0000   1.0000   1.0000   1.0000
     1.0000   1.0000   1.0000   1.0000   1.0000   1.0000   1.0000   0.0000
     0.0000   0.0000   0.0000   0.0000   0.0000   0.0000   0.0000   0.0000
     0.0000   0.0000   0.0000   0.0000   0.0000   0.0000   0.0000   0.0000
     0.0000   0.0000   0.0000   0.0000   0.0000   0.0000   0.0000   0.0000
     0.0000   0.0000   0.0000   0.0000   0.0000   0.0000   0.0000   0.0000
     0.0000   0.0000

          k =-0.0962 0.1667 0.1542 ( 78961 PWs)   bands (ev):

   -44.8143 -44.8143 -44.7683 -44.7683 -44.7683 -44.7683 -35.7259 -35.7259
   -35.7209 -35.7209 -35.7209 -35.7209 -35.6712 -35.6712 -35.6712 -35.6712
   -35.1594 -35.1594 -35.1591 -35.1591 -35.1588 -35.1583 -35.1476 -35.1474
   -35.1472 -35.1472 -35.1471 -35.1471 -35.0747 -35.0747 -35.0747 -35.0747
   -35.0667 -35.0661 -35.0649 -35.0647 -35.0646 -35.0645 -35.0445 -35.0444
   -35.0442 -35.0441 -35.0430 -35.0424 -35.0315 -35.0311 -35.0308 -35.0307
   -35.0305 -35.0305 -35.0177 -35.0177 -35.0177 -35.0177 -34.9977 -34.9977
   -34.5879 -34.5879 -34.5874 -34.5874 -34.5874 -34.5874 -34.5824 -34.5823
   -34.5823 -34.5822 -34.5815 -34.5814 -34.5148 -34.5148 -34.5147 -34.5147
   -34.5128 -34.5128 -34.4550 -34.4549 -34.4533 -34.4533 -34.4532 -34.4532
   -34.4490 -34.4489 -34.4481 -34.4480 -34.4480 -34.4480 -21.0667 -21.0667
   -20.9696 -20.9696 -20.9690 -20.9690 -20.9544 -20.9544 -20.9110 -20.9110
   -20.9107 -20.9107 -20.7604 -20.7604 -20.6276 -20.6276 -20.6264 -20.6264
    -3.6369  -3.5051  -3.2706  -3.0780  -2.6832  -2.6262  -2.5539  -2.5348
    -2.5005  -2.4848  -2.3257  -2.3080  -2.0133  -1.9875  -1.9549  -1.9261
     4.9078   4.9189   4.9497   5.0212   5.2104   5.3367   5.4311   5.5124
     5.5779   5.7080   5.7526   5.8503   5.8750   5.9486   6.3028   6.4496
     6.4999   6.6361   6.8418   6.8804   7.2239   7.2943   7.3487   7.3759
     7.4751   7.4869   7.5956   7.6391   7.6979   7.7621   7.7847   7.8885
     7.9679   7.9895   8.0472   8.1465   8.1759   8.2713   8.2880   8.6270
     8.7550   8.8375   8.9385   8.9697   9.2903   9.3536   9.4186   9.4619
     9.5474   9.6592   9.8816   9.9207  10.0331  10.0552  10.6868  11.0428
    11.6244  11.6389  11.6589  11.6758  11.9575  12.1932  12.2039  12.3079
    12.3417  12.4207  12.5209  12.6022  12.6035  12.6335  12.6926  12.7560
    12.9948  13.1081  13.1292  13.1518  13.2719  13.4332  14.3398  14.4766
    14.4847  14.6185  14.9073  15.1419  15.3298  15.4474  15.5576  15.6163
    15.8752  16.1445

     occupation numbers 
     1.0000   1.0000   1.0000   1.0000   1.0000   1.0000   1.0000   1.0000
     1.0000   1.0000   1.0000   1.0000   1.0000   1.0000   1.0000   1.0000
     1.0000   1.0000   1.0000   1.0000   1.0000   1.0000   1.0000   1.0000
     1.0000   1.0000   1.0000   1.0000   1.0000   1.0000   1.0000   1.0000
     1.0000   1.0000   1.0000   1.0000   1.0000   1.0000   1.0000   1.0000
     1.0000   1.0000   1.0000   1.0000   1.0000   1.0000   1.0000   1.0000
     1.0000   1.0000   1.0000   1.0000   1.0000   1.0000   1.0000   1.0000
     1.0000   1.0000   1.0000   1.0000   1.0000   1.0000   1.0000   1.0000
     1.0000   1.0000   1.0000   1.0000   1.0000   1.0000   1.0000   1.0000
     1.0000   1.0000   1.0000   1.0000   1.0000   1.0000   1.0000   1.0000
     1.0000   1.0000   1.0000   1.0000   1.0000   1.0000   1.0000   1.0000
     1.0000   1.0000   1.0000   1.0000   1.0000   1.0000   1.0000   1.0000
     1.0000   1.0000   1.0000   1.0000   1.0000   1.0000   1.0000   1.0000
     1.0000   1.0000   1.0000   1.0000   1.0000   1.0000   1.0000   1.0000
     1.0000   1.0000   1.0000   1.0000   1.0000   1.0000   1.0000   1.0000
     1.0000   1.0000   1.0000   1.0000   1.0000   1.0000   1.0000   1.0000
     1.0000   1.0000   1.0000   1.0000   1.0000   1.0000   1.0000   1.0000
     1.0000   1.0000   1.0000   1.0000   1.0000   1.0000   1.0000   1.0000
     1.0000   1.0000   1.0000   1.0000   1.0000   1.0000   1.0000   1.0000
     1.0000   1.0000   1.0000   1.0000   1.0000   1.0000   1.0000   1.0000
     1.0000   1.0000   1.0000   1.0000   1.0000   1.0000   1.0000   1.0000
     1.0000   1.0000   1.0000   1.0000   1.0000   1.0000   1.0000   0.0000
     0.0000   0.0000   0.0000   0.0000   0.0000   0.0000   0.0000   0.0000
     0.0000   0.0000   0.0000   0.0000   0.0000   0.0000   0.0000   0.0000
     0.0000   0.0000   0.0000   0.0000   0.0000   0.0000   0.0000   0.0000
     0.0000   0.0000   0.0000   0.0000   0.0000   0.0000   0.0000   0.0000
     0.0000   0.0000

          k =-0.0962 0.1667-0.3084 ( 78966 PWs)   bands (ev):

   -44.8143 -44.8143 -44.7683 -44.7683 -44.7683 -44.7683 -35.7259 -35.7259
   -35.7209 -35.7209 -35.7209 -35.7209 -35.6712 -35.6712 -35.6712 -35.6712
   -35.1594 -35.1594 -35.1591 -35.1591 -35.1588 -35.1583 -35.1476 -35.1474
   -35.1472 -35.1472 -35.1471 -35.1471 -35.0747 -35.0747 -35.0747 -35.0747
   -35.0667 -35.0661 -35.0649 -35.0647 -35.0646 -35.0645 -35.0445 -35.0444
   -35.0442 -35.0441 -35.0430 -35.0424 -35.0315 -35.0311 -35.0308 -35.0307
   -35.0305 -35.0305 -35.0177 -35.0177 -35.0177 -35.0177 -34.9977 -34.9977
   -34.5879 -34.5879 -34.5874 -34.5874 -34.5874 -34.5874 -34.5824 -34.5823
   -34.5823 -34.5822 -34.5815 -34.5814 -34.5148 -34.5148 -34.5147 -34.5147
   -34.5128 -34.5128 -34.4550 -34.4549 -34.4533 -34.4533 -34.4532 -34.4532
   -34.4490 -34.4489 -34.4481 -34.4480 -34.4480 -34.4480 -21.0667 -21.0667
   -20.9696 -20.9696 -20.9690 -20.9690 -20.9544 -20.9544 -20.9110 -20.9110
   -20.9107 -20.9107 -20.7604 -20.7604 -20.6276 -20.6276 -20.6264 -20.6264
    -3.6114  -3.5435  -3.2655  -3.0650  -2.6836  -2.6263  -2.5564  -2.5336
    -2.5040  -2.4846  -2.3228  -2.3113  -2.0134  -1.9879  -1.9548  -1.9258
     4.9090   4.9124   4.9901   5.0161   5.2311   5.3306   5.4442   5.5166
     5.6016   5.6138   5.7310   5.8539   5.8569   5.9334   6.3425   6.4486
     6.4631   6.6832   6.8439   6.8742   7.2021   7.2775   7.3662   7.3943
     7.4791   7.5006   7.5637   7.6184   7.7008   7.7572   7.7752   7.9686
     7.9940   7.9956   8.0440   8.1642   8.1837   8.2278   8.4451   8.5692
     8.7115   8.8370   8.8467   8.9673   9.3028   9.3540   9.3959   9.4662
     9.5674   9.6377   9.8809   9.9073  10.0234  10.0582  10.7783  10.9747
    11.6260  11.6327  11.6520  11.6822  11.9565  12.2149  12.2330  12.2550
    12.3873  12.4012  12.5125  12.6037  12.6153  12.6279  12.6973  12.7563
    12.9886  13.0928  13.1170  13.1902  13.2816  13.4574  14.3210  14.4132
    14.5009  14.5929  14.8268  14.9675  15.4270  15.5014  15.6516  15.6549
    15.8673  16.1008

     occupation numbers 
     1.0000   1.0000   1.0000   1.0000   1.0000   1.0000   1.0000   1.0000
     1.0000   1.0000   1.0000   1.0000   1.0000   1.0000   1.0000   1.0000
     1.0000   1.0000   1.0000   1.0000   1.0000   1.0000   1.0000   1.0000
     1.0000   1.0000   1.0000   1.0000   1.0000   1.0000   1.0000   1.0000
     1.0000   1.0000   1.0000   1.0000   1.0000   1.0000   1.0000   1.0000
     1.0000   1.0000   1.0000   1.0000   1.0000   1.0000   1.0000   1.0000
     1.0000   1.0000   1.0000   1.0000   1.0000   1.0000   1.0000   1.0000
     1.0000   1.0000   1.0000   1.0000   1.0000   1.0000   1.0000   1.0000
     1.0000   1.0000   1.0000   1.0000   1.0000   1.0000   1.0000   1.0000
     1.0000   1.0000   1.0000   1.0000   1.0000   1.0000   1.0000   1.0000
     1.0000   1.0000   1.0000   1.0000   1.0000   1.0000   1.0000   1.0000
     1.0000   1.0000   1.0000   1.0000   1.0000   1.0000   1.0000   1.0000
     1.0000   1.0000   1.0000   1.0000   1.0000   1.0000   1.0000   1.0000
     1.0000   1.0000   1.0000   1.0000   1.0000   1.0000   1.0000   1.0000
     1.0000   1.0000   1.0000   1.0000   1.0000   1.0000   1.0000   1.0000
     1.0000   1.0000   1.0000   1.0000   1.0000   1.0000   1.0000   1.0000
     1.0000   1.0000   1.0000   1.0000   1.0000   1.0000   1.0000   1.0000
     1.0000   1.0000   1.0000   1.0000   1.0000   1.0000   1.0000   1.0000
     1.0000   1.0000   1.0000   1.0000   1.0000   1.0000   1.0000   1.0000
     1.0000   1.0000   1.0000   1.0000   1.0000   1.0000   1.0000   1.0000
     1.0000   1.0000   1.0000   1.0000   1.0000   1.0000   1.0000   1.0000
     1.0000   1.0000   1.0000   1.0000   1.0000   1.0000   0.9720   0.0001
     0.0000   0.0000   0.0000   0.0000   0.0000   0.0000   0.0000   0.0000
     0.0000   0.0000   0.0000   0.0000   0.0000   0.0000   0.0000   0.0000
     0.0000   0.0000   0.0000   0.0000   0.0000   0.0000   0.0000   0.0000
     0.0000   0.0000   0.0000   0.0000   0.0000   0.0000   0.0000   0.0000
     0.0000   0.0000

          k =-0.0962 0.1667-0.2159 ( 78967 PWs)   bands (ev):

   -44.8143 -44.8143 -44.7683 -44.7683 -44.7683 -44.7683 -35.7259 -35.7259
   -35.7209 -35.7209 -35.7209 -35.7209 -35.6712 -35.6712 -35.6712 -35.6712
   -35.1594 -35.1594 -35.1591 -35.1591 -35.1588 -35.1583 -35.1476 -35.1474
   -35.1472 -35.1472 -35.1471 -35.1471 -35.0747 -35.0747 -35.0747 -35.0747
   -35.0667 -35.0661 -35.0649 -35.0647 -35.0646 -35.0645 -35.0445 -35.0444
   -35.0442 -35.0441 -35.0430 -35.0424 -35.0315 -35.0311 -35.0308 -35.0307
   -35.0305 -35.0305 -35.0177 -35.0177 -35.0177 -35.0177 -34.9977 -34.9977
   -34.5879 -34.5879 -34.5874 -34.5874 -34.5874 -34.5874 -34.5824 -34.5823
   -34.5823 -34.5822 -34.5815 -34.5814 -34.5148 -34.5148 -34.5147 -34.5147
   -34.5128 -34.5128 -34.4550 -34.4549 -34.4533 -34.4533 -34.4532 -34.4532
   -34.4490 -34.4489 -34.4481 -34.4480 -34.4480 -34.4480 -21.0667 -21.0667
   -20.9696 -20.9696 -20.9690 -20.9690 -20.9544 -20.9544 -20.9110 -20.9110
   -20.9107 -20.9107 -20.7604 -20.7604 -20.6276 -20.6276 -20.6264 -20.6264
    -3.6190  -3.5330  -3.2668  -3.0675  -2.6843  -2.6263  -2.5533  -2.5337
    -2.5054  -2.4846  -2.3237  -2.3101  -2.0129  -1.9880  -1.9553  -1.9257
     4.9048   4.9098   4.9928   5.0217   5.2277   5.3059   5.4516   5.5116
     5.6157   5.6390   5.7564   5.8035   5.8473   5.9705   6.3191   6.4375
     6.4836   6.6667   6.8560   6.8761   7.1810   7.2638   7.3937   7.4032
     7.5074   7.5421   7.5604   7.5987   7.6924   7.7265   7.7808   7.9541
     7.9970   8.0092   8.0737   8.1075   8.1438   8.2682   8.4146   8.5769
     8.6705   8.8409   8.9240   8.9650   9.2983   9.3831   9.3883   9.4490
     9.5948   9.6027   9.8938   9.8979  10.0157  10.0710  10.7546  10.9887
    11.6330  11.6354  11.6436  11.6855  11.9670  12.1910  12.2270  12.2801
    12.3451  12.4472  12.4954  12.5990  12.6092  12.6471  12.7211  12.7489
    12.9854  13.0618  13.0903  13.2026  13.3071  13.4495  14.2858  14.4181
    14.5723  14.5934  14.8802  14.9560  15.4378  15.4466  15.6319  15.6529
    15.9031  16.0422

     occupation numbers 
     1.0000   1.0000   1.0000   1.0000   1.0000   1.0000   1.0000   1.0000
     1.0000   1.0000   1.0000   1.0000   1.0000   1.0000   1.0000   1.0000
     1.0000   1.0000   1.0000   1.0000   1.0000   1.0000   1.0000   1.0000
     1.0000   1.0000   1.0000   1.0000   1.0000   1.0000   1.0000   1.0000
     1.0000   1.0000   1.0000   1.0000   1.0000   1.0000   1.0000   1.0000
     1.0000   1.0000   1.0000   1.0000   1.0000   1.0000   1.0000   1.0000
     1.0000   1.0000   1.0000   1.0000   1.0000   1.0000   1.0000   1.0000
     1.0000   1.0000   1.0000   1.0000   1.0000   1.0000   1.0000   1.0000
     1.0000   1.0000   1.0000   1.0000   1.0000   1.0000   1.0000   1.0000
     1.0000   1.0000   1.0000   1.0000   1.0000   1.0000   1.0000   1.0000
     1.0000   1.0000   1.0000   1.0000   1.0000   1.0000   1.0000   1.0000
     1.0000   1.0000   1.0000   1.0000   1.0000   1.0000   1.0000   1.0000
     1.0000   1.0000   1.0000   1.0000   1.0000   1.0000   1.0000   1.0000
     1.0000   1.0000   1.0000   1.0000   1.0000   1.0000   1.0000   1.0000
     1.0000   1.0000   1.0000   1.0000   1.0000   1.0000   1.0000   1.0000
     1.0000   1.0000   1.0000   1.0000   1.0000   1.0000   1.0000   1.0000
     1.0000   1.0000   1.0000   1.0000   1.0000   1.0000   1.0000   1.0000
     1.0000   1.0000   1.0000   1.0000   1.0000   1.0000   1.0000   1.0000
     1.0000   1.0000   1.0000   1.0000   1.0000   1.0000   1.0000   1.0000
     1.0000   1.0000   1.0000   1.0000   1.0000   1.0000   1.0000   1.0000
     1.0000   1.0000   1.0000   1.0000   1.0000   1.0000   1.0000   1.0000
     1.0000   1.0000   1.0000   1.0000   1.0000   1.0000   0.9951   0.0000
     0.0000   0.0000   0.0000   0.0000   0.0000   0.0000   0.0000   0.0000
     0.0000   0.0000   0.0000   0.0000   0.0000   0.0000   0.0000   0.0000
     0.0000   0.0000   0.0000   0.0000   0.0000   0.0000   0.0000   0.0000
     0.0000   0.0000   0.0000   0.0000   0.0000   0.0000   0.0000   0.0000
     0.0000   0.0000

          k =-0.0962 0.1667-0.1234 ( 78952 PWs)   bands (ev):

   -44.8143 -44.8143 -44.7683 -44.7683 -44.7683 -44.7683 -35.7259 -35.7259
   -35.7209 -35.7209 -35.7209 -35.7209 -35.6712 -35.6712 -35.6712 -35.6712
   -35.1594 -35.1594 -35.1591 -35.1591 -35.1588 -35.1583 -35.1476 -35.1474
   -35.1472 -35.1472 -35.1471 -35.1471 -35.0747 -35.0747 -35.0747 -35.0747
   -35.0667 -35.0661 -35.0649 -35.0647 -35.0646 -35.0645 -35.0445 -35.0444
   -35.0442 -35.0441 -35.0430 -35.0424 -35.0315 -35.0311 -35.0308 -35.0307
   -35.0305 -35.0305 -35.0177 -35.0177 -35.0177 -35.0177 -34.9977 -34.9977
   -34.5879 -34.5879 -34.5874 -34.5874 -34.5874 -34.5874 -34.5824 -34.5823
   -34.5823 -34.5822 -34.5815 -34.5814 -34.5148 -34.5148 -34.5147 -34.5147
   -34.5128 -34.5128 -34.4550 -34.4549 -34.4533 -34.4533 -34.4532 -34.4532
   -34.4490 -34.4489 -34.4481 -34.4480 -34.4480 -34.4480 -21.0667 -21.0667
   -20.9696 -20.9696 -20.9690 -20.9690 -20.9544 -20.9544 -20.9110 -20.9110
   -20.9107 -20.9107 -20.7604 -20.7604 -20.6276 -20.6276 -20.6264 -20.6264
    -3.6446  -3.4908  -3.2741  -3.0831  -2.6846  -2.6263  -2.5472  -2.5362
    -2.5030  -2.4847  -2.3268  -2.3064  -2.0123  -1.9878  -1.9559  -1.9259
     4.8932   4.9092   4.9672   5.0331   5.1982   5.3060   5.4486   5.4958
     5.5987   5.7393   5.7839   5.7874   5.8934   5.9894   6.2659   6.4550
     6.5164   6.5783   6.8684   6.8841   7.1741   7.2605   7.4179   7.4295
     7.4998   7.5300   7.6018   7.6315   7.6732   7.7400   7.7821   7.8871
     7.9331   7.9927   8.0339   8.1328   8.1395   8.2440   8.3036   8.6280
     8.7041   8.8436   8.9668   9.0573   9.2979   9.3826   9.4046   9.4333
     9.5678   9.6247   9.9008   9.9058  10.0182  10.0825  10.6537  11.0554
    11.6363  11.6441  11.6441  11.6827  11.9834  12.1497  12.2174  12.2730
    12.3643  12.4608  12.4809  12.5962  12.6025  12.6637  12.7382  12.7404
    12.9940  13.0457  13.0469  13.1988  13.3382  13.4018  14.2761  14.4892
    14.6123  14.6306  15.0626  15.0771  15.2884  15.3449  15.6035  15.6566
    15.9311  16.0307

     occupation numbers 
     1.0000   1.0000   1.0000   1.0000   1.0000   1.0000   1.0000   1.0000
     1.0000   1.0000   1.0000   1.0000   1.0000   1.0000   1.0000   1.0000
     1.0000   1.0000   1.0000   1.0000   1.0000   1.0000   1.0000   1.0000
     1.0000   1.0000   1.0000   1.0000   1.0000   1.0000   1.0000   1.0000
     1.0000   1.0000   1.0000   1.0000   1.0000   1.0000   1.0000   1.0000
     1.0000   1.0000   1.0000   1.0000   1.0000   1.0000   1.0000   1.0000
     1.0000   1.0000   1.0000   1.0000   1.0000   1.0000   1.0000   1.0000
     1.0000   1.0000   1.0000   1.0000   1.0000   1.0000   1.0000   1.0000
     1.0000   1.0000   1.0000   1.0000   1.0000   1.0000   1.0000   1.0000
     1.0000   1.0000   1.0000   1.0000   1.0000   1.0000   1.0000   1.0000
     1.0000   1.0000   1.0000   1.0000   1.0000   1.0000   1.0000   1.0000
     1.0000   1.0000   1.0000   1.0000   1.0000   1.0000   1.0000   1.0000
     1.0000   1.0000   1.0000   1.0000   1.0000   1.0000   1.0000   1.0000
     1.0000   1.0000   1.0000   1.0000   1.0000   1.0000   1.0000   1.0000
     1.0000   1.0000   1.0000   1.0000   1.0000   1.0000   1.0000   1.0000
     1.0000   1.0000   1.0000   1.0000   1.0000   1.0000   1.0000   1.0000
     1.0000   1.0000   1.0000   1.0000   1.0000   1.0000   1.0000   1.0000
     1.0000   1.0000   1.0000   1.0000   1.0000   1.0000   1.0000   1.0000
     1.0000   1.0000   1.0000   1.0000   1.0000   1.0000   1.0000   1.0000
     1.0000   1.0000   1.0000   1.0000   1.0000   1.0000   1.0000   1.0000
     1.0000   1.0000   1.0000   1.0000   1.0000   1.0000   1.0000   1.0000
     1.0000   1.0000   1.0000   1.0000   1.0000   1.0000   1.0000   0.0000
     0.0000   0.0000   0.0000   0.0000   0.0000   0.0000   0.0000   0.0000
     0.0000   0.0000   0.0000   0.0000   0.0000   0.0000   0.0000   0.0000
     0.0000   0.0000   0.0000   0.0000   0.0000   0.0000   0.0000   0.0000
     0.0000   0.0000   0.0000   0.0000   0.0000   0.0000   0.0000   0.0000
     0.0000   0.0000

          k =-0.1925 0.3333-0.0617 ( 78990 PWs)   bands (ev):

   -44.8143 -44.8142 -44.7683 -44.7683 -44.7683 -44.7683 -35.7259 -35.7259
   -35.7209 -35.7209 -35.7209 -35.7209 -35.6712 -35.6712 -35.6712 -35.6712
   -35.1594 -35.1593 -35.1591 -35.1590 -35.1588 -35.1585 -35.1475 -35.1474
   -35.1473 -35.1472 -35.1471 -35.1471 -35.0747 -35.0747 -35.0747 -35.0747
   -35.0664 -35.0659 -35.0651 -35.0649 -35.0648 -35.0645 -35.0445 -35.0442
   -35.0441 -35.0438 -35.0432 -35.0427 -35.0314 -35.0310 -35.0308 -35.0307
   -35.0306 -35.0305 -35.0177 -35.0177 -35.0177 -35.0177 -34.9977 -34.9977
   -34.5878 -34.5878 -34.5875 -34.5875 -34.5874 -34.5874 -34.5824 -34.5823
   -34.5822 -34.5821 -34.5816 -34.5815 -34.5148 -34.5148 -34.5144 -34.5144
   -34.5131 -34.5131 -34.4547 -34.4547 -34.4535 -34.4535 -34.4532 -34.4532
   -34.4489 -34.4488 -34.4482 -34.4482 -34.4481 -34.4480 -21.0648 -21.0648
   -20.9692 -20.9692 -20.9674 -20.9674 -20.9535 -20.9535 -20.9116 -20.9116
   -20.9106 -20.9106 -20.7616 -20.7616 -20.6304 -20.6304 -20.6269 -20.6269
    -3.5521  -3.4184  -3.2121  -3.0180  -2.8637  -2.6746  -2.6361  -2.5575
    -2.5084  -2.4880  -2.3357  -2.2711  -2.0554  -2.0219  -1.9883  -1.9219
     5.0503   5.1683   5.2511   5.2756   5.4812   5.5194   5.6704   5.6775
     5.7351   5.8300   5.9012   5.9860   6.1114   6.2660   6.3140   6.4320
     6.4520   6.5866   6.6462   6.7101   6.9821   7.0150   7.1145   7.1516
     7.2770   7.3103   7.3834   7.4641   7.4973   7.7183   7.7588   7.8197
     7.8544   7.9048   7.9698   7.9715   8.1605   8.2480   8.3457   8.4050
     8.5099   8.7469   8.7487   8.8035   8.9489   9.0879   9.2642   9.3273
     9.4020   9.4993   9.8477   9.9165   9.9301  10.0767  10.6109  11.0970
    11.6441  11.6624  11.6875  11.7037  11.9818  12.0649  12.0653  12.2125
    12.3316  12.3411  12.4231  12.5140  12.5945  12.6831  12.6923  12.7975
    12.9644  13.0751  13.0917  13.1781  13.4873  13.6551  14.8051  15.0971
    15.1177  15.2259  15.4543  15.6919  15.7492  15.9244  15.9298  16.0604
    16.2327  16.3729

     occupation numbers 
     1.0000   1.0000   1.0000   1.0000   1.0000   1.0000   1.0000   1.0000
     1.0000   1.0000   1.0000   1.0000   1.0000   1.0000   1.0000   1.0000
     1.0000   1.0000   1.0000   1.0000   1.0000   1.0000   1.0000   1.0000
     1.0000   1.0000   1.0000   1.0000   1.0000   1.0000   1.0000   1.0000
     1.0000   1.0000   1.0000   1.0000   1.0000   1.0000   1.0000   1.0000
     1.0000   1.0000   1.0000   1.0000   1.0000   1.0000   1.0000   1.0000
     1.0000   1.0000   1.0000   1.0000   1.0000   1.0000   1.0000   1.0000
     1.0000   1.0000   1.0000   1.0000   1.0000   1.0000   1.0000   1.0000
     1.0000   1.0000   1.0000   1.0000   1.0000   1.0000   1.0000   1.0000
     1.0000   1.0000   1.0000   1.0000   1.0000   1.0000   1.0000   1.0000
     1.0000   1.0000   1.0000   1.0000   1.0000   1.0000   1.0000   1.0000
     1.0000   1.0000   1.0000   1.0000   1.0000   1.0000   1.0000   1.0000
     1.0000   1.0000   1.0000   1.0000   1.0000   1.0000   1.0000   1.0000
     1.0000   1.0000   1.0000   1.0000   1.0000   1.0000   1.0000   1.0000
     1.0000   1.0000   1.0000   1.0000   1.0000   1.0000   1.0000   1.0000
     1.0000   1.0000   1.0000   1.0000   1.0000   1.0000   1.0000   1.0000
     1.0000   1.0000   1.0000   1.0000   1.0000   1.0000   1.0000   1.0000
     1.0000   1.0000   1.0000   1.0000   1.0000   1.0000   1.0000   1.0000
     1.0000   1.0000   1.0000   1.0000   1.0000   1.0000   1.0000   1.0000
     1.0000   1.0000   1.0000   1.0000   1.0000   1.0000   1.0000   1.0000
     1.0000   1.0000   1.0000   1.0000   1.0000   1.0000   1.0000   1.0000
     1.0000   1.0000   1.0000   1.0000   1.0000   1.0000   1.0000   0.0000
     0.0000   0.0000   0.0000   0.0000   0.0000   0.0000   0.0000   0.0000
     0.0000   0.0000   0.0000   0.0000   0.0000   0.0000   0.0000   0.0000
     0.0000   0.0000   0.0000   0.0000   0.0000   0.0000   0.0000   0.0000
     0.0000   0.0000   0.0000   0.0000   0.0000   0.0000   0.0000   0.0000
     0.0000   0.0000

          k =-0.1925 0.3333 0.0308 ( 79022 PWs)   bands (ev):

   -44.8143 -44.8142 -44.7684 -44.7683 -44.7683 -44.7683 -35.7259 -35.7259
   -35.7209 -35.7209 -35.7209 -35.7209 -35.6712 -35.6712 -35.6712 -35.6712
   -35.1594 -35.1593 -35.1591 -35.1590 -35.1588 -35.1585 -35.1475 -35.1474
   -35.1473 -35.1472 -35.1471 -35.1471 -35.0747 -35.0747 -35.0747 -35.0747
   -35.0664 -35.0659 -35.0651 -35.0649 -35.0648 -35.0645 -35.0445 -35.0442
   -35.0441 -35.0438 -35.0432 -35.0427 -35.0314 -35.0310 -35.0308 -35.0307
   -35.0306 -35.0305 -35.0177 -35.0177 -35.0177 -35.0177 -34.9977 -34.9977
   -34.5878 -34.5878 -34.5875 -34.5875 -34.5874 -34.5874 -34.5824 -34.5823
   -34.5822 -34.5821 -34.5816 -34.5815 -34.5148 -34.5148 -34.5144 -34.5144
   -34.5131 -34.5131 -34.4547 -34.4547 -34.4535 -34.4535 -34.4532 -34.4532
   -34.4489 -34.4488 -34.4482 -34.4482 -34.4481 -34.4480 -21.0648 -21.0648
   -20.9692 -20.9692 -20.9674 -20.9674 -20.9535 -20.9535 -20.9116 -20.9116
   -20.9106 -20.9106 -20.7616 -20.7616 -20.6304 -20.6304 -20.6269 -20.6269
    -3.5537  -3.4169  -3.2074  -3.0244  -2.8636  -2.6734  -2.6362  -2.5590
    -2.5059  -2.4879  -2.3361  -2.2708  -2.0553  -2.0223  -1.9885  -1.9217
     5.0549   5.1687   5.2163   5.2716   5.4759   5.5559   5.6482   5.6857
     5.7314   5.7927   5.9668   6.0239   6.1897   6.2127   6.2828   6.4006
     6.4739   6.5690   6.6609   6.7000   7.0143   7.0161   7.0633   7.1430
     7.2538   7.3435   7.3549   7.4709   7.4976   7.6830   7.7337   7.8367
     7.8488   7.8996   7.9824   7.9880   8.2074   8.2568   8.3902   8.4064
     8.4873   8.7052   8.7572   8.7622   8.9506   9.1061   9.2779   9.3384
     9.3882   9.5280   9.8386   9.9240   9.9465  10.0553  10.6003  11.1130
    11.6538  11.6550  11.6893  11.6928  11.9602  12.0525  12.0981  12.2218
    12.2881  12.3639  12.4114  12.4995  12.5585  12.6581  12.7219  12.8185
    13.0366  13.0770  13.1023  13.1769  13.4697  13.6263  14.8706  15.0277
    15.1064  15.2327  15.4196  15.5628  15.7475  15.8491  16.0209  16.1740
    16.3102  16.3331

     occupation numbers 
     1.0000   1.0000   1.0000   1.0000   1.0000   1.0000   1.0000   1.0000
     1.0000   1.0000   1.0000   1.0000   1.0000   1.0000   1.0000   1.0000
     1.0000   1.0000   1.0000   1.0000   1.0000   1.0000   1.0000   1.0000
     1.0000   1.0000   1.0000   1.0000   1.0000   1.0000   1.0000   1.0000
     1.0000   1.0000   1.0000   1.0000   1.0000   1.0000   1.0000   1.0000
     1.0000   1.0000   1.0000   1.0000   1.0000   1.0000   1.0000   1.0000
     1.0000   1.0000   1.0000   1.0000   1.0000   1.0000   1.0000   1.0000
     1.0000   1.0000   1.0000   1.0000   1.0000   1.0000   1.0000   1.0000
     1.0000   1.0000   1.0000   1.0000   1.0000   1.0000   1.0000   1.0000
     1.0000   1.0000   1.0000   1.0000   1.0000   1.0000   1.0000   1.0000
     1.0000   1.0000   1.0000   1.0000   1.0000   1.0000   1.0000   1.0000
     1.0000   1.0000   1.0000   1.0000   1.0000   1.0000   1.0000   1.0000
     1.0000   1.0000   1.0000   1.0000   1.0000   1.0000   1.0000   1.0000
     1.0000   1.0000   1.0000   1.0000   1.0000   1.0000   1.0000   1.0000
     1.0000   1.0000   1.0000   1.0000   1.0000   1.0000   1.0000   1.0000
     1.0000   1.0000   1.0000   1.0000   1.0000   1.0000   1.0000   1.0000
     1.0000   1.0000   1.0000   1.0000   1.0000   1.0000   1.0000   1.0000
     1.0000   1.0000   1.0000   1.0000   1.0000   1.0000   1.0000   1.0000
     1.0000   1.0000   1.0000   1.0000   1.0000   1.0000   1.0000   1.0000
     1.0000   1.0000   1.0000   1.0000   1.0000   1.0000   1.0000   1.0000
     1.0000   1.0000   1.0000   1.0000   1.0000   1.0000   1.0000   1.0000
     1.0000   1.0000   1.0000   1.0000   1.0000   1.0000   1.0000   0.0000
[...]

     convergence has been achieved in  16 iterations

     Forces acting on atoms (cartesian axes, Ry/au):

     atom    1 type  1   force =     0.00014330   -0.00000000   -0.00000253
     atom    2 type  1   force =    -0.00007165    0.00012410   -0.00000253
     atom    3 type  1   force =    -0.00007165   -0.00012410   -0.00000253
     atom    4 type  1   force =    -0.00014330    0.00000000    0.00000253
     atom    5 type  1   force =     0.00007165   -0.00012410    0.00000253
     atom    6 type  1   force =     0.00007165    0.00012410    0.00000253
     atom    7 type  2   force =     0.00000000   -0.00000000    0.00003030
     atom    8 type  2   force =     0.00000335   -0.00000000    0.00002060
     atom    9 type  2   force =    -0.00000168    0.00000291    0.00002060
     atom   10 type  2   force =    -0.00000168   -0.00000291    0.00002060
     atom   11 type  2   force =     0.00000000   -0.00000000   -0.00001744
     atom   12 type  2   force =     0.00002352    0.00000000   -0.00002715
     atom   13 type  2   force =    -0.00001176    0.00002037   -0.00002715
     atom   14 type  2   force =    -0.00001176   -0.00002037   -0.00002715
     atom   15 type  2   force =    -0.00002352    0.00000000    0.00002715
     atom   16 type  2   force =     0.00001176   -0.00002037    0.00002715
     atom   17 type  2   force =     0.00001176    0.00002037    0.00002715
     atom   18 type  2   force =     0.00000000   -0.00000000    0.00001744
     atom   19 type  2   force =    -0.00000335   -0.00000000   -0.00002060
     atom   20 type  2   force =     0.00000168   -0.00000291   -0.00002060
     atom   21 type  2   force =     0.00000168    0.00000291   -0.00002060
     atom   22 type  2   force =     0.00000000   -0.00000000   -0.00003030
     The non-local contrib.  to forces
     atom    1 type  1   force =    -0.15396774    0.00000000   -0.03480527
     atom    2 type  1   force =     0.07698387   -0.13333997   -0.03480527
     atom    3 type  1   force =     0.07698387    0.13333997   -0.03480527
     atom    4 type  1   force =     0.15396774   -0.00000000    0.03480527
     atom    5 type  1   force =    -0.07698387    0.13333997    0.03480527
     atom    6 type  1   force =    -0.07698387   -0.13333997    0.03480527
     atom    7 type  2   force =    -0.00000000    0.00000000    0.68332247
     atom    8 type  2   force =    -0.25229303    0.00000000    0.33575591
     atom    9 type  2   force =     0.12614651   -0.21849217    0.33575591
     atom   10 type  2   force =     0.12614651    0.21849217    0.33575591
     atom   11 type  2   force =     0.00000000   -0.00000000   -0.35382618
     atom   12 type  2   force =     0.31147698   -0.00000000   -0.43018917
     atom   13 type  2   force =    -0.15573849    0.26974698   -0.43018917
     atom   14 type  2   force =    -0.15573849   -0.26974698   -0.43018917
     atom   15 type  2   force =    -0.31147698    0.00000000    0.43018917
     atom   16 type  2   force =     0.15573849   -0.26974698    0.43018917
     atom   17 type  2   force =     0.15573849    0.26974698    0.43018917
     atom   18 type  2   force =    -0.00000000   -0.00000000    0.35382618
     atom   19 type  2   force =     0.25229303    0.00000000   -0.33575591
     atom   20 type  2   force =    -0.12614651    0.21849217   -0.33575591
     atom   21 type  2   force =    -0.12614651   -0.21849217   -0.33575591
     atom   22 type  2   force =     0.00000000   -0.00000000   -0.68332247
     The ionic contribution  to forces
     atom    1 type  1   force =     7.85493337   -0.00000000   -0.53399047
     atom    2 type  1   force =    -3.92746669    6.80257184   -0.53399047
     atom    3 type  1   force =    -3.92746669   -6.80257184   -0.53399047
     atom    4 type  1   force =    -7.85493338   -0.00000000    0.53399047
     atom    5 type  1   force =     3.92746669   -6.80257184    0.53399047
     atom    6 type  1   force =     3.92746669    6.80257184    0.53399047
     atom    7 type  2   force =     0.00000000   -0.00000000  -25.63191219
     atom    8 type  2   force =     7.14525086   -0.00000000  -14.18594533
     atom    9 type  2   force =    -3.57262543    6.18796876  -14.18594533
     atom   10 type  2   force =    -3.57262543   -6.18796876  -14.18594533
     atom   11 type  2   force =    -0.00000000   -0.00000000   17.94551778
     atom   12 type  2   force =   -13.20824764   -0.00000000   18.01547666
     atom   13 type  2   force =     6.60412382  -11.43867799   18.01547667
     atom   14 type  2   force =     6.60412382   11.43867799   18.01547667
     atom   15 type  2   force =    13.20824764   -0.00000000  -18.01547666
     atom   16 type  2   force =    -6.60412382   11.43867800  -18.01547667
     atom   17 type  2   force =    -6.60412382  -11.43867800  -18.01547667
     atom   18 type  2   force =     0.00000000   -0.00000000  -17.94551778
     atom   19 type  2   force =    -7.14525086   -0.00000000   14.18594533
     atom   20 type  2   force =     3.57262543   -6.18796876   14.18594533
     atom   21 type  2   force =     3.57262543    6.18796876   14.18594533
     atom   22 type  2   force =    -0.00000000   -0.00000000   25.63191219
     The local contribution  to forces
     atom    1 type  1   force =    -7.70079216    0.00000001    0.56889200
     atom    2 type  1   force =     3.85039606   -6.66908164    0.56889200
     atom    3 type  1   force =     3.85039605    6.66908167    0.56889200
     atom    4 type  1   force =     7.70079215    0.00000001   -0.56889196
     atom    5 type  1   force =    -3.85039605    6.66908167   -0.56889196
     atom    6 type  1   force =    -3.85039606   -6.66908164   -0.56889196
     atom    7 type  2   force =     0.00000000    0.00000002   24.94837939
     atom    8 type  2   force =    -6.89441165    0.00000001   13.85149076
     atom    9 type  2   force =     3.44720580   -5.97073563   13.85149076
     atom   10 type  2   force =     3.44720580    5.97073567   13.85149076
     atom   11 type  2   force =    -0.00000002    0.00000002  -17.59410519
     atom   12 type  2   force =    12.89729175    0.00000002  -17.58530208
     atom   13 type  2   force =    -6.44864590   11.16938232  -17.58530208
     atom   14 type  2   force =    -6.44864590  -11.16938228  -17.58530208
     atom   15 type  2   force =   -12.89729176    0.00000002   17.58530212
     atom   16 type  2   force =     6.44864588  -11.16938227   17.58530213
     atom   17 type  2   force =     6.44864588   11.16938232   17.58530212
     atom   18 type  2   force =     0.00000000    0.00000002   17.59410526
     atom   19 type  2   force =     6.89441163    0.00000001  -13.85149072
     atom   20 type  2   force =    -3.44720582    5.97073568  -13.85149072
     atom   21 type  2   force =    -3.44720582   -5.97073563  -13.85149072
     atom   22 type  2   force =    -0.00000002    0.00000002  -24.94837934
     The core correction contribution to forces
     atom    1 type  1   force =     0.00000000    0.00000000    0.00000000
     atom    2 type  1   force =     0.00000000    0.00000000    0.00000000
     atom    3 type  1   force =     0.00000000    0.00000000    0.00000000
     atom    4 type  1   force =     0.00000000    0.00000000    0.00000000
     atom    5 type  1   force =     0.00000000    0.00000000    0.00000000
     atom    6 type  1   force =     0.00000000    0.00000000    0.00000000
     atom    7 type  2   force =     0.00000000    0.00000000    0.00000000
     atom    8 type  2   force =     0.00000000    0.00000000    0.00000000
     atom    9 type  2   force =     0.00000000    0.00000000    0.00000000
     atom   10 type  2   force =     0.00000000    0.00000000    0.00000000
     atom   11 type  2   force =     0.00000000    0.00000000    0.00000000
     atom   12 type  2   force =     0.00000000    0.00000000    0.00000000
     atom   13 type  2   force =     0.00000000    0.00000000    0.00000000
     atom   14 type  2   force =     0.00000000    0.00000000    0.00000000
     atom   15 type  2   force =     0.00000000    0.00000000    0.00000000
     atom   16 type  2   force =     0.00000000    0.00000000    0.00000000
     atom   17 type  2   force =     0.00000000    0.00000000    0.00000000
     atom   18 type  2   force =     0.00000000    0.00000000    0.00000000
     atom   19 type  2   force =     0.00000000    0.00000000    0.00000000
     atom   20 type  2   force =     0.00000000    0.00000000    0.00000000
     atom   21 type  2   force =     0.00000000    0.00000000    0.00000000
     atom   22 type  2   force =     0.00000000    0.00000000    0.00000000
     The Hubbard contrib.    to forces
     atom    1 type  1   force =     0.00000000    0.00000000    0.00000000
     atom    2 type  1   force =     0.00000000    0.00000000    0.00000000
     atom    3 type  1   force =     0.00000000    0.00000000    0.00000000
     atom    4 type  1   force =     0.00000000    0.00000000    0.00000000
     atom    5 type  1   force =     0.00000000    0.00000000    0.00000000
     atom    6 type  1   force =     0.00000000    0.00000000    0.00000000
     atom    7 type  2   force =     0.00000000    0.00000000    0.00000000
     atom    8 type  2   force =     0.00000000    0.00000000    0.00000000
     atom    9 type  2   force =     0.00000000    0.00000000    0.00000000
     atom   10 type  2   force =     0.00000000    0.00000000    0.00000000
     atom   11 type  2   force =     0.00000000    0.00000000    0.00000000
     atom   12 type  2   force =     0.00000000    0.00000000    0.00000000
     atom   13 type  2   force =     0.00000000    0.00000000    0.00000000
     atom   14 type  2   force =     0.00000000    0.00000000    0.00000000
     atom   15 type  2   force =     0.00000000    0.00000000    0.00000000
     atom   16 type  2   force =     0.00000000    0.00000000    0.00000000
     atom   17 type  2   force =     0.00000000    0.00000000    0.00000000
     atom   18 type  2   force =     0.00000000    0.00000000    0.00000000
     atom   19 type  2   force =     0.00000000    0.00000000    0.00000000
     atom   20 type  2   force =     0.00000000    0.00000000    0.00000000
     atom   21 type  2   force =     0.00000000    0.00000000    0.00000000
     atom   22 type  2   force =     0.00000000    0.00000000    0.00000000
     The SCF correction term to forces
     atom    1 type  1   force =     0.00000079    0.00000000    0.00000047
     atom    2 type  1   force =    -0.00000040    0.00000068    0.00000047
     atom    3 type  1   force =    -0.00000040   -0.00000068    0.00000047
     atom    4 type  1   force =    -0.00000079    0.00000000   -0.00000047
     atom    5 type  1   force =     0.00000040   -0.00000068   -0.00000047
     atom    6 type  1   force =     0.00000040    0.00000068   -0.00000047
     atom    7 type  2   force =    -0.00000000    0.00000000   -0.00000094
     atom    8 type  2   force =    -0.00000071    0.00000000    0.00000057
     atom    9 type  2   force =     0.00000036   -0.00000061    0.00000057
     atom   10 type  2   force =     0.00000036    0.00000061    0.00000057
     atom   11 type  2   force =    -0.00000000    0.00000000    0.00000010
     atom   12 type  2   force =    -0.00000098    0.00000000    0.00000011
     atom   13 type  2   force =     0.00000049   -0.00000085    0.00000011
     atom   14 type  2   force =     0.00000049    0.00000085    0.00000011
     atom   15 type  2   force =     0.00000098    0.00000000   -0.00000011
     atom   16 type  2   force =    -0.00000049    0.00000085   -0.00000011
     atom   17 type  2   force =    -0.00000049   -0.00000085   -0.00000011
     atom   18 type  2   force =    -0.00000000    0.00000000   -0.00000010
     atom   19 type  2   force =     0.00000071    0.00000000   -0.00000057
     atom   20 type  2   force =    -0.00000036    0.00000061   -0.00000057
     atom   21 type  2   force =    -0.00000036   -0.00000061   -0.00000057
     atom   22 type  2   force =     0.00000000    0.00000000    0.00000094

     DFT-D3 dispersion contribution to forces:
     atom    1 type  1   force =    -0.00003096    0.00000000   -0.00009925
     atom    2 type  1   force =     0.00001548   -0.00002682   -0.00009925
     atom    3 type  1   force =     0.00001548    0.00002682   -0.00009925
     atom    4 type  1   force =     0.00003096    0.00000000    0.00009925
     atom    5 type  1   force =    -0.00001548    0.00002682    0.00009925
     atom    6 type  1   force =    -0.00001548   -0.00002682    0.00009925
     atom    7 type  2   force =     0.00000000    0.00000000    0.00024160
     atom    8 type  2   force =     0.00145788    0.00000000   -0.00128129
     atom    9 type  2   force =    -0.00072894    0.00126256   -0.00128129
     atom   10 type  2   force =    -0.00072894   -0.00126256   -0.00128129
     atom   11 type  2   force =     0.00000000    0.00000000    0.00239608
     atom   12 type  2   force =    -0.00049660    0.00000000   -0.00001265
     atom   13 type  2   force =     0.00024830   -0.00043007   -0.00001265
     atom   14 type  2   force =     0.00024830    0.00043007   -0.00001265
     atom   15 type  2   force =     0.00049660    0.00000000    0.00001265
     atom   16 type  2   force =    -0.00024830    0.00043007    0.00001265
     atom   17 type  2   force =    -0.00024830   -0.00043007    0.00001265
     atom   18 type  2   force =     0.00000000    0.00000000   -0.00239608
     atom   19 type  2   force =    -0.00145788    0.00000000    0.00128129
     atom   20 type  2   force =     0.00072894   -0.00126256    0.00128129
     atom   21 type  2   force =     0.00072894    0.00126256    0.00128129
     atom   22 type  2   force =    -0.00000000    0.00000000   -0.00024160

     Total force =     0.000369     Total SCF correction =     0.000004

     DFT-D3 dispersion Force =     0.005979


     Computing stress (Cartesian axis) and pressure

          total   stress  (Ry/bohr**3)                   (kbar)     P=        3.05
   0.00000919  -0.00000000  -0.00000000            1.35       -0.00       -0.00
  -0.00000000   0.00000919  -0.00000000           -0.00        1.35       -0.00
  -0.00000000   0.00000000   0.00004380           -0.00        0.00        6.44

     kinetic stress (kbar)  33366.12      0.00      0.00
                               -0.00  33366.12     -0.00
                                0.00      0.00  33311.78

     local   stress (kbar) -13651.64      0.00     -0.00
                                0.00 -13651.64     -0.00
                               -0.00     -0.00  -3428.13

     nonloc. stress (kbar)  -2660.03      0.00      0.00
                               -0.00  -2660.03     -0.00
                                0.00     -0.00  -2629.92

     hartree stress (kbar)  11848.66      0.00      0.00
                                0.00  11848.66      0.00
                                0.00      0.00   7095.23

     exc-cor stress (kbar)  -3932.97     -0.00      0.00
                               -0.00  -3932.97      0.00
                                0.00      0.00  -3933.67

     corecor stress (kbar)      0.00      0.00      0.00
                                0.00      0.00      0.00
                                0.00      0.00      0.00

     ewald   stress (kbar) -24957.42     -0.00      0.00
                               -0.00 -24957.42      0.00
                                0.00      0.00 -30396.05

     hubbard stress (kbar)      0.00      0.00      0.00
                                0.00      0.00      0.00
                                0.00      0.00      0.00

     DFT-D   stress (kbar)    -11.38      0.00     -0.00
                                0.00    -11.38      0.00
                               -0.00      0.00    -12.79

     XDM     stress (kbar)      0.00      0.00      0.00
                                0.00      0.00      0.00
                                0.00      0.00      0.00

     dft-nl  stress (kbar)      0.00      0.00      0.00
                                0.00      0.00      0.00
                                0.00      0.00      0.00

     TS-vdW  stress (kbar)      0.00      0.00      0.00
                                0.00      0.00      0.00
                                0.00      0.00      0.00

     MDB     stress (kbar)      0.00      0.00      0.00
                                0.00      0.00      0.00
                                0.00      0.00      0.00

     3D-RISM stress (kbar)      0.00      0.00      0.00
                                0.00      0.00      0.00
                                0.00      0.00      0.00


     Writing all to output data dir ./out/Nb3I8.save/ :
     XML data file, charge density, pseudopotentials, collected wavefunctions

     init_run     :      4.44s CPU      4.69s WALL (       1 calls)
     electrons    :    236.23s CPU    254.65s WALL (       1 calls)
     forces       :      0.94s CPU      1.00s WALL (       1 calls)
     force_dftd3  :      0.02s CPU      0.02s WALL (       1 calls)
     stress       :     12.70s CPU     12.95s WALL (       1 calls)
     stres_dftd3  :      0.02s CPU      0.02s WALL (       1 calls)

     Called by init_run:
     wfcinit      :      2.92s CPU      3.08s WALL (       1 calls)
     wfcinit:wfcr :      2.78s CPU      2.90s WALL (       3 calls)
     potinit      :      0.14s CPU      0.17s WALL (       1 calls)
     hinit0       :      0.95s CPU      0.99s WALL (       1 calls)

     Called by electrons:
     c_bands      :    203.58s CPU    208.87s WALL (      17 calls)
     sum_band     :     29.73s CPU     30.37s WALL (      17 calls)
     v_of_rho     :      1.95s CPU      2.19s WALL (      17 calls)
     v_h          :      0.12s CPU      0.13s WALL (      17 calls)
     v_xc         :      1.83s CPU      2.05s WALL (      17 calls)
     mix_rho      :      0.20s CPU      0.22s WALL (      17 calls)
     energy_dftd3 :      0.00s CPU      0.00s WALL (       1 calls)

     Called by c_bands:
     init_us_2    :      1.94s CPU      2.00s WALL (     111 calls)
     cegterg      :    181.31s CPU    186.30s WALL (      51 calls)

     Called by sum_band:
     sum_band:wei :      0.04s CPU      0.04s WALL (      17 calls)
     sum_band:loo :     28.01s CPU     28.56s WALL (      17 calls)
     sum_band:buf :      0.37s CPU      0.39s WALL (      51 calls)
     sum_band:ini :      0.93s CPU      0.95s WALL (      51 calls)

     Called by *egterg:
     cdiaghg      :     16.07s CPU     16.72s WALL (     447 calls)
     cegterg:over :     12.67s CPU     12.97s WALL (     399 calls)
     cegterg:upda :      9.48s CPU      9.93s WALL (     399 calls)
     cegterg:last :     11.81s CPU     12.05s WALL (     124 calls)
     cdiaghg:chol :      1.22s CPU      1.24s WALL (     447 calls)
     cdiaghg:inve :      0.25s CPU      0.26s WALL (     447 calls)
     cdiaghg:para :      4.48s CPU      4.82s WALL (     894 calls)
     h_psi        :    130.36s CPU    133.42s WALL (     453 calls)
     g_psi        :      0.35s CPU      0.36s WALL (     399 calls)

     Called by h_psi:
     h_psi:calbec :      9.82s CPU     10.04s WALL (     453 calls)
     vloc_psi     :    111.13s CPU    113.48s WALL (     453 calls)
     add_vuspsi   :      8.70s CPU      8.86s WALL (     453 calls)

     General routines
     calbec       :     10.67s CPU     10.91s WALL (     468 calls)
     fft          :      1.48s CPU      1.60s WALL (     178 calls)
     ffts         :      0.08s CPU      0.09s WALL (      17 calls)
     fftw         :    111.38s CPU    113.63s WALL (   75446 calls)

     Parallel routines

     PWSCF        :    256.21s CPU    298.81s WALL


   This run was terminated on:  20:47: 0   7May2025            

=------------------------------------------------------------------------------=
   JOB DONE.
=------------------------------------------------------------------------------=
