
     Program PHONON v.7.3.1 starts on  5Jul2025 at 18:51:18 

     This program is part of the open-source Quantum ESPRESSO suite
     for quantum simulation of materials; please cite
         "P. Giannozzi et al., J. Phys.:Condens. Matter 21 395502 (2009);
         "P. Giannozzi et al., J. Phys.:Condens. Matter 29 465901 (2017);
         "P. Giannozzi et al., J. Chem. Phys. 152 154105 (2020);
          URL http://www.quantum-espresso.org", 
     in publications or presentations arising from this work. More details at
     http://www.quantum-espresso.org/quote

     Parallel version (MPI & OpenMP), running on     384 processor cores
     Number of MPI processes:               384
     Threads/MPI process:                     1

     MPI processes distributed on     2 nodes
     344892 MiB available memory on the printing compute node when the environment starts

     Waiting for input...
     Reading input from standard input
     Run is not recoverable starting from scratch

     Reading xml data from directory:

     ./out/Nb3Br8.save/

     K-points division:     npool     =      12
     R & G space division:  proc/nbgrp/npool/nimage =      32
     Subspace diagonalization in iterative solution of the eigenvalue problem:
     a serial algorithm will be used


     IMPORTANT: XC functional enforced from input :
     Exchange-correlation= PBE
                           (   1   4   3   4   0   0   0)
     Any further DFT definition will be discarded
     Please, verify this is what you really want


     Parallelization info
     --------------------
     sticks:   dense  smooth     PW     G-vecs:    dense   smooth      PW
     Min         154     154     41                16158    16158    2215
     Max         156     156     43                16169    16169    2221
     Sum        4957    4957   1333               517183   517183   70941

     Using Slab Decomposition

     Reading collected, re-writing distributed wavefunctions in ./out/


     Dynamical matrices for ( 2, 2, 2)  uniform grid of q-points
     (   4 q-points):
       N         xq(1)         xq(2)         xq(3) 
       1   0.000000000   0.000000000   0.000000000
       2   0.000000000   0.000000000  -0.273399961
       3   0.288675135  -0.500000000   0.091133320
       4   0.288675135  -0.500000000  -0.182266641

     Number and degeneracy of irreps per q-point
       N         xq(1)         xq(2)         xq(3)   N irreps
       1   0.000000000   0.000000000   0.000000000      44
        1   1   1   1   1   1   1   1   1   1   1   2   2   2   2   2   2   2
   2   2   2   2   1   1   1   1   1   1   1   1   1   1   1   2   2   2
   2   2   2   2   2   2   2   2
       2   0.000000000   0.000000000  -0.273399961      44
        1   1   1   1   1   1   1   1   1   1   1   2   2   2   2   2   2   2
   2   2   2   2   1   1   1   1   1   1   1   1   1   1   1   2   2   2
   2   2   2   2   2   2   2   2
Eigenvectors exchange needed   15   62
       3   0.288675135  -0.500000000   0.091133320      65
        1   1   1   1   1   1   1   1   1   1   1   1   1   1   2   1   1   1
   1   1   1   1   1   1   1   1   1   1   1   1   1   1   1   1   1   1
   1   1   1   1   1   1   1   1   1   1   1   1   1   1   1   1   1   1
   1   1   1   1   1   1   1   1   1   1   1
Eigenvectors exchange needed   15   62
       4   0.288675135  -0.500000000  -0.182266641      65
        1   1   1   1   1   1   1   1   1   1   1   1   1   1   2   1   1   1
   1   1   1   1   1   1   1   1   1   1   1   1   1   1   1   1   1   1
   1   1   1   1   1   1   1   1   1   1   1   1   1   1   1   1   1   1
   1   1   1   1   1   1   1   1   1   1   1

     Saving dvscf to file. Distribute only q points, not irreducible representations.

     Calculation of q =    0.0000000   0.0000000   0.0000000

     Nb3Br8                                                                     

     bravais-lattice index     =            0
     lattice parameter (alat)  =      13.4224  a.u.
     unit-cell volume          =    3829.9744 (a.u.)^3
     number of atoms/cell      =           22
     number of atomic types    =            2
     kinetic-energy cut-off    =     100.0000  Ry
     charge density cut-off    =     400.0000  Ry
     convergence threshold     =      1.0E-17
     beta                      =       0.7000
     number of iterations used =            4
     Exchange-correlation= PBE
                           (   1   4   3   4   0   0   0)


     celldm(1)=   13.42243  celldm(2)=    0.00000  celldm(3)=    0.00000
     celldm(4)=    0.00000  celldm(5)=    0.00000  celldm(6)=    0.00000

     crystal axes: (cart. coord. in units of alat)
               a(1) = (  0.8660  0.5000  0.0000 )  
               a(2) = ( -0.8660  0.5000  0.0000 )  
               a(3) = ( -0.5774  0.0000  1.8288 )  

     reciprocal axes: (cart. coord. in units 2 pi/alat)
               b(1) = (  0.5774  1.0000  0.1823 )  
               b(2) = ( -0.5774  1.0000 -0.1823 )  
               b(3) = (  0.0000 -0.0000  0.5468 )  


     Atoms inside the unit cell: 

     Cartesian axes

     site n.  atom      mass           positions (alat units)
        1  Nb     92.9064   tau(    1) = (    0.23350    0.00000   -0.46226  )
        2  Nb     92.9064   tau(    2) = (   -0.11675    0.20221   -0.46226  )
        3  Nb     92.9064   tau(    3) = (   -0.11675   -0.20221   -0.46226  )
        4  Nb     92.9064   tau(    4) = (   -0.23350   -0.00000    0.46226  )
        5  Nb     92.9064   tau(    5) = (    0.11675   -0.20221    0.46226  )
        6  Nb     92.9064   tau(    6) = (    0.11675    0.20221    0.46226  )
        7  Br     79.9040   tau(    7) = (    0.00000    0.00000   -0.74048  )
        8  Br     79.9040   tau(    8) = (    0.87143    0.00000   -0.66496  )
        9  Br     79.9040   tau(    9) = (    0.43031    0.25468   -0.66496  )
       10  Br     79.9040   tau(   10) = (    0.43031   -0.25468   -0.66496  )
       11  Br     79.9040   tau(   11) = (    0.57735   -0.00000   -0.26262  )
       12  Br     79.9040   tau(   12) = (   -0.28804    0.00000   -0.21578  )
       13  Br     79.9040   tau(   13) = (    0.14402   -0.24945   -0.21578  )
       14  Br     79.9040   tau(   14) = (    0.14402    0.24945   -0.21578  )
       15  Br     79.9040   tau(   15) = (    0.28804   -0.00000    0.21578  )
       16  Br     79.9040   tau(   16) = (   -0.14402    0.24945    0.21578  )
       17  Br     79.9040   tau(   17) = (   -0.14402   -0.24945    0.21578  )
       18  Br     79.9040   tau(   18) = (   -0.57735    0.00000    0.26262  )
       19  Br     79.9040   tau(   19) = (   -0.87143   -0.00000    0.66496  )
       20  Br     79.9040   tau(   20) = (   -0.43031   -0.25468    0.66496  )
       21  Br     79.9040   tau(   21) = (   -0.43031    0.25468    0.66496  )
       22  Br     79.9040   tau(   22) = (   -0.00000   -0.00000    0.74048  )

     Computing dynamical matrix for 
                    q = (   0.0000000   0.0000000   0.0000000 )

     13 Sym.Ops. (with q -> -q+G )


     G cutoff = 1825.4196  (  16158 G-vectors)     FFT grid: (180,180,180)

     number of k points=    32  Marzari-Vanderbilt smearing, width (Ry)=  0.0037

     PseudoPot. # 1 for Nb read from file:
     /scratch-shared/mroesner/Nb3X8_cDFPT/pp/Nb_ONCV_PBE-1.2.upf
     MD5 check sum: 2c750ac0b6910ff4cf0ab5f6c4124a64
     Pseudo is Norm-conserving, Zval = 13.0
     Generated using ONCVPSP code by D. R. Hamann
     Using radial grid of  602 points,  6 beta functions with: 
                l(1) =   0
                l(2) =   0
                l(3) =   1
                l(4) =   1
                l(5) =   2
                l(6) =   2

     PseudoPot. # 2 for Br read from file:
     /scratch-shared/mroesner/Nb3X8_cDFPT/pp/Br_ONCV_PBE-1.2.upf
     MD5 check sum: 5b50323dbf1c0ae0ed9e7f1e72c3f86c
     Pseudo is Norm-conserving, Zval =  7.0
     Generated using ONCVPSP code by D. R. Hamann
     Using radial grid of  602 points,  6 beta functions with: 
                l(1) =   0
                l(2) =   0
                l(3) =   1
                l(4) =   1
                l(5) =   2
                l(6) =   2

     Mode symmetry, D_3d (-3m)  point group:


     Atomic displacements:
     There are   44 irreducible representations

     Representation     1      1 modes -  To be done

     Representation     2      1 modes -  To be done

     Representation     3      1 modes -  To be done

     Representation     4      1 modes -  To be done

     Representation     5      1 modes -  To be done

     Representation     6      1 modes -  To be done

     Representation     7      1 modes -  To be done

     Representation     8      1 modes -  To be done

     Representation     9      1 modes -  To be done

     Representation    10      1 modes -  To be done

     Representation    11      1 modes -  To be done

     Representation    12      2 modes -  To be done

     Representation    13      2 modes -  To be done

     Representation    14      2 modes -  To be done

     Representation    15      2 modes -  To be done

     Representation    16      2 modes -  To be done

     Representation    17      2 modes -  To be done

     Representation    18      2 modes -  To be done

     Representation    19      2 modes -  To be done

     Representation    20      2 modes -  To be done

     Representation    21      2 modes -  To be done

     Representation    22      2 modes -  To be done

     Representation    23      1 modes -  To be done

     Representation    24      1 modes -  To be done

     Representation    25      1 modes -  To be done

     Representation    26      1 modes -  To be done

     Representation    27      1 modes -  To be done

     Representation    28      1 modes -  To be done

     Representation    29      1 modes -  To be done

     Representation    30      1 modes -  To be done

     Representation    31      1 modes -  To be done

     Representation    32      1 modes -  To be done

     Representation    33      1 modes -  To be done

     Representation    34      2 modes -  To be done

     Representation    35      2 modes -  To be done

     Representation    36      2 modes -  To be done

     Representation    37      2 modes -  To be done

     Representation    38      2 modes -  To be done

     Representation    39      2 modes -  To be done

     Representation    40      2 modes -  To be done

     Representation    41      2 modes -  To be done

     Representation    42      2 modes -  To be done

     Representation    43      2 modes -  To be done

     Representation    44      2 modes -  To be done



     Alpha used in Ewald sum =   2.8000

     Reading Grimme-D3 Hessian from file: ./out/Nb3Br8.hess

     Number of cells replicated along each semiaxis:    9   9   4
     Number of cells in the supercell:      3249
     Number of atoms in the supercell:     71478
     Hessian allocation dimension:  14152644

     Grimme-D3 Hessian read 

     Computing dynamical matrix for q:     0.000000    0.000000    0.000000

     Writing Hessian on file dynamical.false.dat

     Dynamical matrix computed
     PHONON       :     23.40s CPU     29.71s WALL



     Representation #   1 mode #   1

     Self-consistent Calculation

     Pert. #  1: Fermi energy shift (Ry) =    -3.6243E-01    -4.0390E-27

      iter #   1 total cpu time :    80.6 secs   av.it.:   9.0
      thresh= 1.000E-02 alpha_mix =  0.700 |ddv_scf|^2 =  1.538E-07

     Pert. #  1: Fermi energy shift (Ry) =     6.4584E-01     8.0779E-28

      iter #   2 total cpu time :   161.5 secs   av.it.:  22.8
      thresh= 3.921E-05 alpha_mix =  0.700 |ddv_scf|^2 =  3.991E-07

     Pert. #  1: Fermi energy shift (Ry) =    -2.3732E-01     7.0682E-28

      iter #   3 total cpu time :   219.1 secs   av.it.:  20.7
      thresh= 6.317E-05 alpha_mix =  0.700 |ddv_scf|^2 =  4.024E-08

     Pert. #  1: Fermi energy shift (Ry) =    -7.0640E-02    -4.0390E-28

      iter #   4 total cpu time :   309.0 secs   av.it.:  19.9
      thresh= 2.006E-05 alpha_mix =  0.700 |ddv_scf|^2 =  1.337E-09

     Pert. #  1: Fermi energy shift (Ry) =    -3.2542E-02    -1.6156E-27

      iter #   5 total cpu time :   368.6 secs   av.it.:  20.3
      thresh= 3.657E-06 alpha_mix =  0.700 |ddv_scf|^2 =  5.638E-10

     Pert. #  1: Fermi energy shift (Ry) =    -4.5247E-02    -1.2117E-27

      iter #   6 total cpu time :   442.5 secs   av.it.:  19.6
      thresh= 2.374E-06 alpha_mix =  0.700 |ddv_scf|^2 =  3.414E-12

     Pert. #  1: Fermi energy shift (Ry) =    -4.8050E-02    -1.2117E-27

      iter #   7 total cpu time :   503.9 secs   av.it.:  21.8
      thresh= 1.848E-07 alpha_mix =  0.700 |ddv_scf|^2 =  3.901E-13

     Pert. #  1: Fermi energy shift (Ry) =    -4.8256E-02    -1.2117E-27

      iter #   8 total cpu time :   560.5 secs   av.it.:  21.1
      thresh= 6.246E-08 alpha_mix =  0.700 |ddv_scf|^2 =  1.076E-13

     Pert. #  1: Fermi energy shift (Ry) =    -4.7889E-02    -1.2117E-27

      iter #   9 total cpu time :   649.1 secs   av.it.:  21.3
      thresh= 3.281E-08 alpha_mix =  0.700 |ddv_scf|^2 =  2.280E-14

     Pert. #  1: Fermi energy shift (Ry) =    -4.7849E-02    -1.2117E-27

      iter #  10 total cpu time :   748.9 secs   av.it.:  21.7
      thresh= 1.510E-08 alpha_mix =  0.700 |ddv_scf|^2 =  1.854E-14

     Pert. #  1: Fermi energy shift (Ry) =    -4.7969E-02    -1.2117E-27

      iter #  11 total cpu time :   801.2 secs   av.it.:  20.1
      thresh= 1.362E-08 alpha_mix =  0.700 |ddv_scf|^2 =  8.532E-16

     Pert. #  1: Fermi energy shift (Ry) =    -4.8037E-02    -1.2117E-27

      iter #  12 total cpu time :   860.1 secs   av.it.:  22.8
      thresh= 2.921E-09 alpha_mix =  0.700 |ddv_scf|^2 =  3.122E-15

     Pert. #  1: Fermi energy shift (Ry) =    -4.7980E-02    -1.2117E-27

      iter #  13 total cpu time :   927.4 secs   av.it.:  19.8
      thresh= 5.587E-09 alpha_mix =  0.700 |ddv_scf|^2 =  1.901E-16

     Pert. #  1: Fermi energy shift (Ry) =    -4.7978E-02    -1.2117E-27

      iter #  14 total cpu time :   980.9 secs   av.it.:  20.7
      thresh= 1.379E-09 alpha_mix =  0.700 |ddv_scf|^2 =  1.642E-17

     Pert. #  1: Fermi energy shift (Ry) =    -4.7985E-02    -1.2117E-27

      iter #  15 total cpu time :  1042.8 secs   av.it.:  21.6
      thresh= 4.052E-10 alpha_mix =  0.700 |ddv_scf|^2 =  7.239E-18

     End of self-consistent calculation

     Convergence has been achieved 


     Representation #   2 mode #   2

     Self-consistent Calculation

     Pert. #  1: Fermi energy shift (Ry) =    -2.8913E-02    -2.4234E-27

      iter #   1 total cpu time :  1103.5 secs   av.it.:   7.0
      thresh= 1.000E-02 alpha_mix =  0.700 |ddv_scf|^2 =  2.955E-08

     Pert. #  1: Fermi energy shift (Ry) =     9.0647E-02     3.6351E-27

      iter #   2 total cpu time :  1167.0 secs   av.it.:  21.8
      thresh= 1.719E-05 alpha_mix =  0.700 |ddv_scf|^2 =  9.998E-08

     Pert. #  1: Fermi energy shift (Ry) =    -2.9491E-02    -4.4429E-27

      iter #   3 total cpu time :  1237.8 secs   av.it.:  19.6
      thresh= 3.162E-05 alpha_mix =  0.700 |ddv_scf|^2 =  3.083E-08

     Pert. #  1: Fermi energy shift (Ry) =    -1.6221E-02    -1.6156E-27

      iter #   4 total cpu time :  1303.7 secs   av.it.:  18.7
      thresh= 1.756E-05 alpha_mix =  0.700 |ddv_scf|^2 =  2.163E-10

     Pert. #  1: Fermi energy shift (Ry) =     9.2637E-03    -1.2117E-27

      iter #   5 total cpu time :  1374.5 secs   av.it.:  21.1
      thresh= 1.471E-06 alpha_mix =  0.700 |ddv_scf|^2 =  3.716E-11

     Pert. #  1: Fermi energy shift (Ry) =     5.2287E-04    -1.4136E-27

      iter #   6 total cpu time :  1444.2 secs   av.it.:  20.7
      thresh= 6.096E-07 alpha_mix =  0.700 |ddv_scf|^2 =  8.831E-13

     Pert. #  1: Fermi energy shift (Ry) =     1.4203E-03    -1.4136E-27

      iter #   7 total cpu time :  1497.3 secs   av.it.:  21.5
      thresh= 9.397E-08 alpha_mix =  0.700 |ddv_scf|^2 =  1.855E-13

     Pert. #  1: Fermi energy shift (Ry) =     1.0692E-03    -1.4136E-27

      iter #   8 total cpu time :  1566.4 secs   av.it.:  21.5
      thresh= 4.307E-08 alpha_mix =  0.700 |ddv_scf|^2 =  3.228E-14

     Pert. #  1: Fermi energy shift (Ry) =     1.0670E-03    -1.4136E-27

      iter #   9 total cpu time :  1638.5 secs   av.it.:  21.2
      thresh= 1.797E-08 alpha_mix =  0.700 |ddv_scf|^2 =  5.297E-14

     Pert. #  1: Fermi energy shift (Ry) =     1.1683E-03    -1.4136E-27

      iter #  10 total cpu time :  1695.5 secs   av.it.:  19.6
      thresh= 2.302E-08 alpha_mix =  0.700 |ddv_scf|^2 =  9.486E-15

     Pert. #  1: Fermi energy shift (Ry) =     1.0532E-03    -1.4136E-27

      iter #  11 total cpu time :  1751.6 secs   av.it.:  20.8
      thresh= 9.739E-09 alpha_mix =  0.700 |ddv_scf|^2 =  2.778E-15

     Pert. #  1: Fermi energy shift (Ry) =     1.1726E-03    -1.4136E-27

      iter #  12 total cpu time :  1827.9 secs   av.it.:  21.5
      thresh= 5.270E-09 alpha_mix =  0.700 |ddv_scf|^2 =  1.886E-15

     Pert. #  1: Fermi energy shift (Ry) =     1.1128E-03    -1.4136E-27

      iter #  13 total cpu time :  1904.0 secs   av.it.:  20.6
      thresh= 4.343E-09 alpha_mix =  0.700 |ddv_scf|^2 =  9.188E-17

     Pert. #  1: Fermi energy shift (Ry) =     1.1211E-03    -1.4136E-27

      iter #  14 total cpu time :  1959.7 secs   av.it.:  21.2
      thresh= 9.586E-10 alpha_mix =  0.700 |ddv_scf|^2 =  7.769E-18

     End of self-consistent calculation

     Convergence has been achieved 


     Representation #   3 mode #   3

     Self-consistent Calculation

     Pert. #  1: Fermi energy shift (Ry) =     1.4699E-01    -2.0195E-28

      iter #   1 total cpu time :  2032.2 secs   av.it.:   7.0
      thresh= 1.000E-02 alpha_mix =  0.700 |ddv_scf|^2 =  7.390E-08

     Pert. #  1: Fermi energy shift (Ry) =    -4.1699E-01     1.6156E-27

      iter #   2 total cpu time :  2107.4 secs   av.it.:  21.8
      thresh= 2.718E-05 alpha_mix =  0.700 |ddv_scf|^2 =  7.837E-07

     Pert. #  1: Fermi energy shift (Ry) =    -8.1498E-02    -4.0390E-28

      iter #   3 total cpu time :  2170.0 secs   av.it.:  18.6
      thresh= 8.853E-05 alpha_mix =  0.700 |ddv_scf|^2 =  8.839E-09

     Pert. #  1: Fermi energy shift (Ry) =     3.9468E-02     2.0195E-28

      iter #   4 total cpu time :  2237.3 secs   av.it.:  20.4
      thresh= 9.402E-06 alpha_mix =  0.700 |ddv_scf|^2 =  9.694E-10

     Pert. #  1: Fermi energy shift (Ry) =    -4.6307E-03     2.5244E-29

      iter #   5 total cpu time :  2311.2 secs   av.it.:  20.8
      thresh= 3.113E-06 alpha_mix =  0.700 |ddv_scf|^2 =  1.724E-11

     Pert. #  1: Fermi energy shift (Ry) =    -4.4735E-03     5.0487E-29

      iter #   6 total cpu time :  2388.5 secs   av.it.:  21.1
      thresh= 4.152E-07 alpha_mix =  0.700 |ddv_scf|^2 =  8.818E-13

     Pert. #  1: Fermi energy shift (Ry) =    -3.6063E-03     5.0487E-29

      iter #   7 total cpu time :  2463.8 secs   av.it.:  21.5
      thresh= 9.390E-08 alpha_mix =  0.700 |ddv_scf|^2 =  9.154E-14

     Pert. #  1: Fermi energy shift (Ry) =    -3.5890E-03     5.0487E-29

      iter #   8 total cpu time :  2564.4 secs   av.it.:  21.5
      thresh= 3.026E-08 alpha_mix =  0.700 |ddv_scf|^2 =  3.103E-14

     Pert. #  1: Fermi energy shift (Ry) =    -3.4748E-03     5.0487E-29

      iter #   9 total cpu time :  2630.5 secs   av.it.:  21.1
      thresh= 1.762E-08 alpha_mix =  0.700 |ddv_scf|^2 =  4.127E-14

     Pert. #  1: Fermi energy shift (Ry) =    -3.6438E-03     5.0487E-29

      iter #  10 total cpu time :  2702.6 secs   av.it.:  19.6
      thresh= 2.031E-08 alpha_mix =  0.700 |ddv_scf|^2 =  6.547E-15

     Pert. #  1: Fermi energy shift (Ry) =    -3.4848E-03     5.0487E-29

      iter #  11 total cpu time :  2761.6 secs   av.it.:  21.6
      thresh= 8.091E-09 alpha_mix =  0.700 |ddv_scf|^2 =  3.724E-15

     Pert. #  1: Fermi energy shift (Ry) =    -3.5480E-03     5.0487E-29

      iter #  12 total cpu time :  2827.6 secs   av.it.:  20.6
      thresh= 6.102E-09 alpha_mix =  0.700 |ddv_scf|^2 =  3.616E-16

     Pert. #  1: Fermi energy shift (Ry) =    -3.5486E-03     5.0487E-29

      iter #  13 total cpu time :  2888.9 secs   av.it.:  21.2
      thresh= 1.902E-09 alpha_mix =  0.700 |ddv_scf|^2 =  5.100E-17

     Pert. #  1: Fermi energy shift (Ry) =    -3.5435E-03     5.0487E-29

      iter #  14 total cpu time :  2958.7 secs   av.it.:  21.2
      thresh= 7.141E-10 alpha_mix =  0.700 |ddv_scf|^2 =  9.910E-18

     End of self-consistent calculation

     Convergence has been achieved 


     Representation #   4 mode #   4

     Self-consistent Calculation

     Pert. #  1: Fermi energy shift (Ry) =     2.2826E-01    -3.2312E-27

      iter #   1 total cpu time :  3020.9 secs   av.it.:   7.9
      thresh= 1.000E-02 alpha_mix =  0.700 |ddv_scf|^2 =  2.446E-07

     Pert. #  1: Fermi energy shift (Ry) =    -6.8967E-01     1.2925E-26

      iter #   2 total cpu time :  3083.6 secs   av.it.:  21.6
      thresh= 4.946E-05 alpha_mix =  0.700 |ddv_scf|^2 =  3.144E-06

     Pert. #  1: Fermi energy shift (Ry) =    -1.4547E-01    -1.5146E-28

      iter #   3 total cpu time :  3141.8 secs   av.it.:  18.2
      thresh= 1.773E-04 alpha_mix =  0.700 |ddv_scf|^2 =  1.621E-08

     Pert. #  1: Fermi energy shift (Ry) =     4.1131E-02    -6.0585E-28

      iter #   4 total cpu time :  3202.1 secs   av.it.:  20.6
      thresh= 1.273E-05 alpha_mix =  0.700 |ddv_scf|^2 =  1.401E-09

     Pert. #  1: Fermi energy shift (Ry) =    -1.6878E-02    -1.5146E-28

      iter #   5 total cpu time :  3264.4 secs   av.it.:  21.1
      thresh= 3.743E-06 alpha_mix =  0.700 |ddv_scf|^2 =  2.387E-11

     Pert. #  1: Fermi energy shift (Ry) =    -1.5215E-02    -1.5146E-28

      iter #   6 total cpu time :  3325.4 secs   av.it.:  21.2
      thresh= 4.886E-07 alpha_mix =  0.700 |ddv_scf|^2 =  3.049E-12

     Pert. #  1: Fermi energy shift (Ry) =    -1.3282E-02    -1.5146E-28

      iter #   7 total cpu time :  3382.1 secs   av.it.:  21.2
      thresh= 1.746E-07 alpha_mix =  0.700 |ddv_scf|^2 =  6.452E-14

     Pert. #  1: Fermi energy shift (Ry) =    -1.3190E-02    -2.0195E-28

      iter #   8 total cpu time :  3448.5 secs   av.it.:  22.2
      thresh= 2.540E-08 alpha_mix =  0.700 |ddv_scf|^2 =  1.976E-14

     Pert. #  1: Fermi energy shift (Ry) =    -1.3274E-02    -1.5146E-28

      iter #   9 total cpu time :  3517.3 secs   av.it.:  21.8
      thresh= 1.406E-08 alpha_mix =  0.700 |ddv_scf|^2 =  6.721E-15

     Pert. #  1: Fermi energy shift (Ry) =    -1.3366E-02    -2.0195E-28

      iter #  10 total cpu time :  3578.7 secs   av.it.:  21.7
      thresh= 8.198E-09 alpha_mix =  0.700 |ddv_scf|^2 =  3.557E-14

     Pert. #  1: Fermi energy shift (Ry) =    -1.3218E-02    -2.0195E-28

      iter #  11 total cpu time :  3633.5 secs   av.it.:  19.5
      thresh= 1.886E-08 alpha_mix =  0.700 |ddv_scf|^2 =  7.144E-16

     Pert. #  1: Fermi energy shift (Ry) =    -1.3243E-02    -1.5146E-28

      iter #  12 total cpu time :  3706.4 secs   av.it.:  21.4
      thresh= 2.673E-09 alpha_mix =  0.700 |ddv_scf|^2 =  1.021E-16

     Pert. #  1: Fermi energy shift (Ry) =    -1.3258E-02    -1.5146E-28

      iter #  13 total cpu time :  3767.5 secs   av.it.:  21.8
      thresh= 1.011E-09 alpha_mix =  0.700 |ddv_scf|^2 =  5.760E-17

     Pert. #  1: Fermi energy shift (Ry) =    -1.3248E-02    -1.5146E-28

      iter #  14 total cpu time :  3841.2 secs   av.it.:  21.1
      thresh= 7.589E-10 alpha_mix =  0.700 |ddv_scf|^2 =  7.531E-18

     End of self-consistent calculation

     Convergence has been achieved 


     Representation #   5 mode #   5

     Self-consistent Calculation

     Pert. #  1: Fermi energy shift (Ry) =    -4.8613E-03    -6.4623E-27

      iter #   1 total cpu time :  3907.8 secs   av.it.:   9.9
      thresh= 1.000E-02 alpha_mix =  0.700 |ddv_scf|^2 =  2.021E-06

     Pert. #  1: Fermi energy shift (Ry) =     2.3769E-02     2.5849E-26

      iter #   2 total cpu time :  3967.4 secs   av.it.:  21.5
      thresh= 1.422E-04 alpha_mix =  0.700 |ddv_scf|^2 =  2.795E-05

     Pert. #  1: Fermi energy shift (Ry) =    -4.4809E-02    -4.0390E-28

      iter #   3 total cpu time :  4054.9 secs   av.it.:  17.8
      thresh= 5.286E-04 alpha_mix =  0.700 |ddv_scf|^2 =  7.841E-09

     Pert. #  1: Fermi energy shift (Ry) =     6.3445E-02     3.7865E-29

      iter #   4 total cpu time :  4118.6 secs   av.it.:  21.8
      thresh= 8.855E-06 alpha_mix =  0.700 |ddv_scf|^2 =  2.161E-09

     Pert. #  1: Fermi energy shift (Ry) =    -3.3421E-02    -4.0390E-28

      iter #   5 total cpu time :  4190.4 secs   av.it.:  21.2
      thresh= 4.648E-06 alpha_mix =  0.700 |ddv_scf|^2 =  5.938E-10

     Pert. #  1: Fermi energy shift (Ry) =     5.1244E-04    -2.0195E-28

      iter #   6 total cpu time :  4253.8 secs   av.it.:  20.6
      thresh= 2.437E-06 alpha_mix =  0.700 |ddv_scf|^2 =  9.612E-12

     Pert. #  1: Fermi energy shift (Ry) =    -1.7696E-04    -2.0195E-28

      iter #   7 total cpu time :  4313.8 secs   av.it.:  20.7
      thresh= 3.100E-07 alpha_mix =  0.700 |ddv_scf|^2 =  2.557E-13

     Pert. #  1: Fermi energy shift (Ry) =    -7.1166E-04    -2.0195E-28

      iter #   8 total cpu time :  4375.5 secs   av.it.:  22.4
      thresh= 5.057E-08 alpha_mix =  0.700 |ddv_scf|^2 =  8.648E-13

     Pert. #  1: Fermi energy shift (Ry) =    -4.9526E-04    -2.0195E-28

      iter #   9 total cpu time :  4430.5 secs   av.it.:  19.4
      thresh= 9.300E-08 alpha_mix =  0.700 |ddv_scf|^2 =  3.625E-15

     Pert. #  1: Fermi energy shift (Ry) =    -4.1717E-04    -2.0195E-28

      iter #  10 total cpu time :  4507.1 secs   av.it.:  22.2
      thresh= 6.021E-09 alpha_mix =  0.700 |ddv_scf|^2 =  1.120E-15

     Pert. #  1: Fermi energy shift (Ry) =    -4.5154E-04    -2.0195E-28

      iter #  11 total cpu time :  4573.8 secs   av.it.:  21.5
      thresh= 3.347E-09 alpha_mix =  0.700 |ddv_scf|^2 =  8.828E-17

     Pert. #  1: Fermi energy shift (Ry) =    -4.6347E-04    -2.0195E-28

      iter #  12 total cpu time :  4807.8 secs   av.it.:  22.2
      thresh= 9.396E-10 alpha_mix =  0.700 |ddv_scf|^2 =  6.996E-17

     Pert. #  1: Fermi energy shift (Ry) =    -4.5442E-04    -2.0195E-28

      iter #  13 total cpu time :  4931.9 secs   av.it.:  20.7
      thresh= 8.364E-10 alpha_mix =  0.700 |ddv_scf|^2 =  4.092E-18

     End of self-consistent calculation

     Convergence has been achieved 


     Representation #   6 mode #   6

     Self-consistent Calculation

     Pert. #  1: Fermi energy shift (Ry) =    -1.3028E-01     1.2117E-27

      iter #   1 total cpu time :  4993.9 secs   av.it.:   7.9
      thresh= 1.000E-02 alpha_mix =  0.700 |ddv_scf|^2 =  3.423E-07

     Pert. #  1: Fermi energy shift (Ry) =     4.1046E-01    -1.2925E-26

      iter #   2 total cpu time :  5049.7 secs   av.it.:  21.4
      thresh= 5.850E-05 alpha_mix =  0.700 |ddv_scf|^2 =  4.279E-06

     Pert. #  1: Fermi energy shift (Ry) =     1.0561E-01     1.2117E-27

      iter #   3 total cpu time :  5107.8 secs   av.it.:  17.9
      thresh= 2.069E-04 alpha_mix =  0.700 |ddv_scf|^2 =  1.553E-08

     Pert. #  1: Fermi energy shift (Ry) =    -5.1370E-02    -1.2117E-27

      iter #   4 total cpu time :  5167.0 secs   av.it.:  20.5
      thresh= 1.246E-05 alpha_mix =  0.700 |ddv_scf|^2 =  1.759E-09

     Pert. #  1: Fermi energy shift (Ry) =     2.2891E-02    -8.0779E-28

      iter #   5 total cpu time :  5228.8 secs   av.it.:  21.1
      thresh= 4.194E-06 alpha_mix =  0.700 |ddv_scf|^2 =  8.628E-11

     Pert. #  1: Fermi energy shift (Ry) =     1.3842E-02    -8.0779E-28

      iter #   6 total cpu time :  5284.9 secs   av.it.:  20.7
      thresh= 9.289E-07 alpha_mix =  0.700 |ddv_scf|^2 =  4.250E-12

     Pert. #  1: Fermi energy shift (Ry) =     1.1605E-02    -8.0779E-28

      iter #   7 total cpu time :  5349.1 secs   av.it.:  21.7
      thresh= 2.062E-07 alpha_mix =  0.700 |ddv_scf|^2 =  9.585E-14

     Pert. #  1: Fermi energy shift (Ry) =     1.1684E-02    -8.0779E-28

      iter #   8 total cpu time :  5443.4 secs   av.it.:  21.8
      thresh= 3.096E-08 alpha_mix =  0.700 |ddv_scf|^2 =  3.879E-14

     Pert. #  1: Fermi energy shift (Ry) =     1.1697E-02    -8.0779E-28

      iter #   9 total cpu time :  5554.0 secs   av.it.:  20.7
      thresh= 1.970E-08 alpha_mix =  0.700 |ddv_scf|^2 =  2.598E-14

     Pert. #  1: Fermi energy shift (Ry) =     1.1810E-02    -8.0779E-28

      iter #  10 total cpu time :  5632.1 secs   av.it.:  20.6
      thresh= 1.612E-08 alpha_mix =  0.700 |ddv_scf|^2 =  1.475E-14

     Pert. #  1: Fermi energy shift (Ry) =     1.1656E-02    -8.0779E-28

      iter #  11 total cpu time :  5689.3 secs   av.it.:  20.5
      thresh= 1.215E-08 alpha_mix =  0.700 |ddv_scf|^2 =  1.693E-15

     Pert. #  1: Fermi energy shift (Ry) =     1.1689E-02    -8.0779E-28

      iter #  12 total cpu time :  5749.1 secs   av.it.:  20.9
      thresh= 4.114E-09 alpha_mix =  0.700 |ddv_scf|^2 =  3.086E-16

     Pert. #  1: Fermi energy shift (Ry) =     1.1704E-02    -8.0779E-28

      iter #  13 total cpu time :  5806.4 secs   av.it.:  22.0
      thresh= 1.757E-09 alpha_mix =  0.700 |ddv_scf|^2 =  1.645E-16

     Pert. #  1: Fermi energy shift (Ry) =     1.1695E-02    -8.0779E-28

      iter #  14 total cpu time :  5898.5 secs   av.it.:  21.5
      thresh= 1.283E-09 alpha_mix =  0.700 |ddv_scf|^2 =  1.344E-17

     Pert. #  1: Fermi energy shift (Ry) =     1.1694E-02    -8.0779E-28

      iter #  15 total cpu time :  5966.9 secs   av.it.:  21.3
      thresh= 3.666E-10 alpha_mix =  0.700 |ddv_scf|^2 =  9.662E-18

     End of self-consistent calculation

     Convergence has been achieved 


     Representation #   7 mode #   7

     Self-consistent Calculation

     Pert. #  1: Fermi energy shift (Ry) =    -7.4425E-02     8.0779E-28

      iter #   1 total cpu time :  6024.6 secs   av.it.:   7.0
      thresh= 1.000E-02 alpha_mix =  0.700 |ddv_scf|^2 =  1.268E-07

     Pert. #  1: Fermi energy shift (Ry) =     2.6662E-01    -3.2312E-27

      iter #   2 total cpu time :  6110.8 secs   av.it.:  21.5
      thresh= 3.560E-05 alpha_mix =  0.700 |ddv_scf|^2 =  1.623E-06

     Pert. #  1: Fermi energy shift (Ry) =     3.7280E-02    -2.0195E-28

      iter #   3 total cpu time :  6169.6 secs   av.it.:  18.1
      thresh= 1.274E-04 alpha_mix =  0.700 |ddv_scf|^2 =  5.130E-09

     Pert. #  1: Fermi energy shift (Ry) =    -4.1176E-02    -5.0487E-29

      iter #   4 total cpu time :  6230.5 secs   av.it.:  20.6
      thresh= 7.162E-06 alpha_mix =  0.700 |ddv_scf|^2 =  8.668E-10

     Pert. #  1: Fermi energy shift (Ry) =     1.1472E-02    -2.0195E-28

      iter #   5 total cpu time :  6289.8 secs   av.it.:  21.1
      thresh= 2.944E-06 alpha_mix =  0.700 |ddv_scf|^2 =  5.357E-11

     Pert. #  1: Fermi energy shift (Ry) =     2.9279E-03    -2.0195E-28

      iter #   6 total cpu time :  6348.9 secs   av.it.:  20.8
      thresh= 7.319E-07 alpha_mix =  0.700 |ddv_scf|^2 =  2.211E-12

     Pert. #  1: Fermi energy shift (Ry) =     2.2701E-03    -2.0195E-28

      iter #   7 total cpu time :  6406.4 secs   av.it.:  21.1
      thresh= 1.487E-07 alpha_mix =  0.700 |ddv_scf|^2 =  7.408E-14

     Pert. #  1: Fermi energy shift (Ry) =     2.2531E-03    -2.0195E-28

      iter #   8 total cpu time :  6459.8 secs   av.it.:  21.6
      thresh= 2.722E-08 alpha_mix =  0.700 |ddv_scf|^2 =  1.672E-14

     Pert. #  1: Fermi energy shift (Ry) =     2.2955E-03    -2.0195E-28

      iter #   9 total cpu time :  6522.1 secs   av.it.:  20.8
      thresh= 1.293E-08 alpha_mix =  0.700 |ddv_scf|^2 =  1.633E-14

     Pert. #  1: Fermi energy shift (Ry) =     2.4068E-03    -2.0195E-28

      iter #  10 total cpu time :  6581.9 secs   av.it.:  20.6
      thresh= 1.278E-08 alpha_mix =  0.700 |ddv_scf|^2 =  8.948E-15

     Pert. #  1: Fermi energy shift (Ry) =     2.2454E-03    -2.0195E-28

      iter #  11 total cpu time :  6639.6 secs   av.it.:  20.9
      thresh= 9.459E-09 alpha_mix =  0.700 |ddv_scf|^2 =  1.832E-15

     Pert. #  1: Fermi energy shift (Ry) =     2.3011E-03    -2.0195E-28

      iter #  12 total cpu time :  6701.0 secs   av.it.:  21.1
      thresh= 4.280E-09 alpha_mix =  0.700 |ddv_scf|^2 =  3.438E-16

     Pert. #  1: Fermi energy shift (Ry) =     2.2976E-03    -2.0195E-28

      iter #  13 total cpu time :  6757.8 secs   av.it.:  21.3
      thresh= 1.854E-09 alpha_mix =  0.700 |ddv_scf|^2 =  6.308E-17

     Pert. #  1: Fermi energy shift (Ry) =     2.2967E-03    -2.0195E-28

      iter #  14 total cpu time :  6811.4 secs   av.it.:  21.2
      thresh= 7.942E-10 alpha_mix =  0.700 |ddv_scf|^2 =  1.032E-17

     Pert. #  1: Fermi energy shift (Ry) =     2.2966E-03    -2.0195E-28

      iter #  15 total cpu time :  6903.0 secs   av.it.:  20.8
      thresh= 3.213E-10 alpha_mix =  0.700 |ddv_scf|^2 =  5.835E-18

     End of self-consistent calculation

     Convergence has been achieved 


     Representation #   8 mode #   8

     Self-consistent Calculation

     Pert. #  1: Fermi energy shift (Ry) =     2.5749E-02     5.6546E-27

      iter #   1 total cpu time :  6977.1 secs   av.it.:   7.0
      thresh= 1.000E-02 alpha_mix =  0.700 |ddv_scf|^2 =  9.989E-08

     Pert. #  1: Fermi energy shift (Ry) =    -3.0020E-02    -1.1309E-26

      iter #   2 total cpu time :  7032.4 secs   av.it.:  21.5
      thresh= 3.161E-05 alpha_mix =  0.700 |ddv_scf|^2 =  1.065E-06

     Pert. #  1: Fermi energy shift (Ry) =    -2.6403E-02     1.2117E-27

      iter #   3 total cpu time :  7087.4 secs   av.it.:  18.1
      thresh= 1.032E-04 alpha_mix =  0.700 |ddv_scf|^2 =  1.391E-08

     Pert. #  1: Fermi energy shift (Ry) =     1.2017E-02     1.2117E-27

      iter #   4 total cpu time :  7156.4 secs   av.it.:  19.8
      thresh= 1.179E-05 alpha_mix =  0.700 |ddv_scf|^2 =  1.159E-10

     Pert. #  1: Fermi energy shift (Ry) =    -7.7327E-03     1.2117E-27

      iter #   5 total cpu time :  7221.2 secs   av.it.:  21.8
      thresh= 1.077E-06 alpha_mix =  0.700 |ddv_scf|^2 =  3.956E-11

     Pert. #  1: Fermi energy shift (Ry) =     3.4481E-03     1.2117E-27

      iter #   6 total cpu time :  7280.4 secs   av.it.:  20.8
      thresh= 6.290E-07 alpha_mix =  0.700 |ddv_scf|^2 =  5.817E-12

     Pert. #  1: Fermi energy shift (Ry) =     5.2866E-04     1.2117E-27

      iter #   7 total cpu time :  7335.8 secs   av.it.:  20.8
      thresh= 2.412E-07 alpha_mix =  0.700 |ddv_scf|^2 =  1.913E-13

     Pert. #  1: Fermi energy shift (Ry) =     8.1936E-04     1.2117E-27

      iter #   8 total cpu time :  7395.3 secs   av.it.:  21.5
      thresh= 4.373E-08 alpha_mix =  0.700 |ddv_scf|^2 =  3.960E-14

     Pert. #  1: Fermi energy shift (Ry) =     8.8200E-04     1.2117E-27

      iter #   9 total cpu time :  7462.1 secs   av.it.:  21.2
      thresh= 1.990E-08 alpha_mix =  0.700 |ddv_scf|^2 =  1.465E-13

     Pert. #  1: Fermi energy shift (Ry) =     7.7456E-04     1.2117E-27

      iter #  10 total cpu time :  7550.6 secs   av.it.:  19.0
      thresh= 3.827E-08 alpha_mix =  0.700 |ddv_scf|^2 =  4.261E-15

     Pert. #  1: Fermi energy shift (Ry) =     8.7196E-04     1.2117E-27

      iter #  11 total cpu time :  7641.3 secs   av.it.:  22.1
      thresh= 6.528E-09 alpha_mix =  0.700 |ddv_scf|^2 =  3.246E-15

     Pert. #  1: Fermi energy shift (Ry) =     7.5702E-04     1.2117E-27

      iter #  12 total cpu time :  7703.5 secs   av.it.:  21.6
      thresh= 5.697E-09 alpha_mix =  0.700 |ddv_scf|^2 =  1.862E-15

     Pert. #  1: Fermi energy shift (Ry) =     8.2910E-04     1.2117E-27

      iter #  13 total cpu time :  7764.9 secs   av.it.:  20.8
      thresh= 4.315E-09 alpha_mix =  0.700 |ddv_scf|^2 =  3.264E-16

     Pert. #  1: Fermi energy shift (Ry) =     8.1236E-04     1.2117E-27

      iter #  14 total cpu time :  7844.4 secs   av.it.:  21.3
      thresh= 1.807E-09 alpha_mix =  0.700 |ddv_scf|^2 =  3.958E-17

     Pert. #  1: Fermi energy shift (Ry) =     8.1133E-04     1.2117E-27

      iter #  15 total cpu time :  7911.4 secs   av.it.:  21.3
      thresh= 6.291E-10 alpha_mix =  0.700 |ddv_scf|^2 =  3.912E-17

     Pert. #  1: Fermi energy shift (Ry) =     8.1365E-04     1.2117E-27

      iter #  16 total cpu time :  7971.3 secs   av.it.:  19.1
      thresh= 6.255E-10 alpha_mix =  0.700 |ddv_scf|^2 =  7.064E-18

     End of self-consistent calculation

     Convergence has been achieved 


     Representation #   9 mode #   9

     Self-consistent Calculation

     Pert. #  1: Fermi energy shift (Ry) =    -2.8234E-22     1.4947E-44

      iter #   1 total cpu time :  8041.0 secs   av.it.:   6.0
      thresh= 1.000E-02 alpha_mix =  0.700 |ddv_scf|^2 =  1.773E-09

     Pert. #  1: Fermi energy shift (Ry) =    -1.4117E-22    -5.9789E-44

      iter #   2 total cpu time :  8105.7 secs   av.it.:  21.7
      thresh= 4.211E-06 alpha_mix =  0.700 |ddv_scf|^2 =  2.527E-10

     Pert. #  1: Fermi energy shift (Ry) =     0.0000E+00     1.1958E-43

      iter #   3 total cpu time :  8176.4 secs   av.it.:  21.7
      thresh= 1.590E-06 alpha_mix =  0.700 |ddv_scf|^2 =  1.339E-12

     Pert. #  1: Fermi energy shift (Ry) =    -1.4117E-22    -1.4947E-44

      iter #   4 total cpu time :  8243.3 secs   av.it.:  21.9
      thresh= 1.157E-07 alpha_mix =  0.700 |ddv_scf|^2 =  9.274E-14

     Pert. #  1: Fermi energy shift (Ry) =    -1.4117E-22    -3.7368E-45

      iter #   5 total cpu time :  8316.8 secs   av.it.:  21.4
      thresh= 3.045E-08 alpha_mix =  0.700 |ddv_scf|^2 =  1.798E-15

     Pert. #  1: Fermi energy shift (Ry) =    -1.4117E-22    -1.8684E-45

      iter #   6 total cpu time :  8375.2 secs   av.it.:  22.0
      thresh= 4.240E-09 alpha_mix =  0.700 |ddv_scf|^2 =  7.880E-17

     Pert. #  1: Fermi energy shift (Ry) =    -1.4117E-22     0.0000E+00

      iter #   7 total cpu time :  8432.7 secs   av.it.:  21.1
      thresh= 8.877E-10 alpha_mix =  0.700 |ddv_scf|^2 =  5.943E-18

     End of self-consistent calculation

     Convergence has been achieved 


     Representation #  10 mode #  10

     Self-consistent Calculation

     Pert. #  1: Fermi energy shift (Ry) =    -1.1294E-21     0.0000E+00

      iter #   1 total cpu time :  8522.1 secs   av.it.:   6.0
      thresh= 1.000E-02 alpha_mix =  0.700 |ddv_scf|^2 =  1.496E-09

     Pert. #  1: Fermi energy shift (Ry) =     0.0000E+00     0.0000E+00

      iter #   2 total cpu time :  8580.2 secs   av.it.:  21.9
      thresh= 3.868E-06 alpha_mix =  0.700 |ddv_scf|^2 =  1.752E-10

     Pert. #  1: Fermi energy shift (Ry) =     0.0000E+00     0.0000E+00

      iter #   3 total cpu time :  8655.4 secs   av.it.:  21.9
      thresh= 1.324E-06 alpha_mix =  0.700 |ddv_scf|^2 =  1.369E-12

     Pert. #  1: Fermi energy shift (Ry) =    -2.8234E-22     0.0000E+00

      iter #   4 total cpu time :  8712.8 secs   av.it.:  22.0
      thresh= 1.170E-07 alpha_mix =  0.700 |ddv_scf|^2 =  9.708E-14

     Pert. #  1: Fermi energy shift (Ry) =     0.0000E+00     1.4947E-44

      iter #   5 total cpu time :  8773.2 secs   av.it.:  21.4
      thresh= 3.116E-08 alpha_mix =  0.700 |ddv_scf|^2 =  2.061E-15

     Pert. #  1: Fermi energy shift (Ry) =     0.0000E+00     2.9894E-44

      iter #   6 total cpu time :  8831.9 secs   av.it.:  22.1
      thresh= 4.540E-09 alpha_mix =  0.700 |ddv_scf|^2 =  7.807E-17

     Pert. #  1: Fermi energy shift (Ry) =     0.0000E+00     2.9894E-44

      iter #   7 total cpu time :  8889.7 secs   av.it.:  20.8
      thresh= 8.836E-10 alpha_mix =  0.700 |ddv_scf|^2 =  6.386E-18

     End of self-consistent calculation

     Convergence has been achieved 


     Representation #  11 mode #  11

     Self-consistent Calculation

     Pert. #  1: Fermi energy shift (Ry) =     4.5175E-21     2.9894E-44

      iter #   1 total cpu time :  8958.1 secs   av.it.:   8.1
      thresh= 1.000E-02 alpha_mix =  0.700 |ddv_scf|^2 =  1.271E-08

     Pert. #  1: Fermi energy shift (Ry) =     5.6469E-22    -4.7831E-43

      iter #   2 total cpu time :  9020.4 secs   av.it.:  22.2
      thresh= 1.127E-05 alpha_mix =  0.700 |ddv_scf|^2 =  2.383E-09

     Pert. #  1: Fermi energy shift (Ry) =     1.1294E-21     1.9132E-42

      iter #   3 total cpu time :  9082.2 secs   av.it.:  21.6
      thresh= 4.882E-06 alpha_mix =  0.700 |ddv_scf|^2 =  4.721E-12

     Pert. #  1: Fermi energy shift (Ry) =     2.2588E-21     5.9789E-44

      iter #   4 total cpu time :  9147.0 secs   av.it.:  22.1
      thresh= 2.173E-07 alpha_mix =  0.700 |ddv_scf|^2 =  2.127E-13

     Pert. #  1: Fermi energy shift (Ry) =     2.2588E-21     2.9894E-44

      iter #   5 total cpu time :  9210.4 secs   av.it.:  21.3
      thresh= 4.612E-08 alpha_mix =  0.700 |ddv_scf|^2 =  2.052E-15

     Pert. #  1: Fermi energy shift (Ry) =     2.2588E-21    -7.4736E-45

      iter #   6 total cpu time :  9266.4 secs   av.it.:  22.1
      thresh= 4.530E-09 alpha_mix =  0.700 |ddv_scf|^2 =  9.834E-17

     Pert. #  1: Fermi energy shift (Ry) =     2.2588E-21     9.3420E-46

      iter #   7 total cpu time :  9325.6 secs   av.it.:  22.3
      thresh= 9.917E-10 alpha_mix =  0.700 |ddv_scf|^2 =  7.723E-18

     End of self-consistent calculation

     Convergence has been achieved 


     Representation #  12 modes #  12  13

     Self-consistent Calculation

     Pert. #  1: Fermi energy shift (Ry) =     0.0000E+00     0.0000E+00
     Pert. #  2: Fermi energy shift (Ry) =    -9.0350E-21     0.0000E+00

      iter #   1 total cpu time :  9423.1 secs   av.it.:   6.0
      thresh= 1.000E-02 alpha_mix =  0.700 |ddv_scf|^2 =  5.628E-10

     Pert. #  1: Fermi energy shift (Ry) =     3.6140E-20     3.5873E-43
     Pert. #  2: Fermi energy shift (Ry) =     1.0842E-19     1.7937E-43

      iter #   2 total cpu time :  9542.4 secs   av.it.:  25.2
      thresh= 2.372E-06 alpha_mix =  0.700 |ddv_scf|^2 =  5.161E-09

     Pert. #  1: Fermi energy shift (Ry) =    -2.7105E-19    -2.9894E-44
     Pert. #  2: Fermi energy shift (Ry) =    -1.7167E-19     2.9894E-44

      iter #   3 total cpu time :  9657.7 secs   av.it.:  21.9
      thresh= 7.184E-06 alpha_mix =  0.700 |ddv_scf|^2 =  1.410E-09

     Pert. #  1: Fermi energy shift (Ry) =     4.4046E-20     0.0000E+00
     Pert. #  2: Fermi energy shift (Ry) =     5.2234E-21    -1.1958E-43

      iter #   4 total cpu time :  9788.5 secs   av.it.:  21.9
      thresh= 3.755E-06 alpha_mix =  0.700 |ddv_scf|^2 =  1.750E-11

     Pert. #  1: Fermi energy shift (Ry) =    -4.9693E-20     1.4947E-44
     Pert. #  2: Fermi energy shift (Ry) =     3.5011E-20    -2.6158E-44

      iter #   5 total cpu time :  9969.7 secs   av.it.:  22.8
      thresh= 4.183E-07 alpha_mix =  0.700 |ddv_scf|^2 =  1.774E-13

     Pert. #  1: Fermi energy shift (Ry) =     2.5976E-20    -7.4736E-45
     Pert. #  2: Fermi energy shift (Ry) =     1.6941E-21     3.7368E-45

      iter #   6 total cpu time : 10086.7 secs   av.it.:  24.0
      thresh= 4.212E-08 alpha_mix =  0.700 |ddv_scf|^2 =  7.016E-14

     Pert. #  1: Fermi energy shift (Ry) =    -1.2423E-20     1.1210E-44
     Pert. #  2: Fermi energy shift (Ry) =     4.9693E-20     1.3079E-44

      iter #   7 total cpu time : 10189.9 secs   av.it.:  23.2
      thresh= 2.649E-08 alpha_mix =  0.700 |ddv_scf|^2 =  3.831E-15

     Pert. #  1: Fermi energy shift (Ry) =    -6.6633E-20    -1.8684E-45
     Pert. #  2: Fermi energy shift (Ry) =     2.2588E-21     4.6710E-45

      iter #   8 total cpu time : 10307.7 secs   av.it.:  23.5
      thresh= 6.190E-09 alpha_mix =  0.700 |ddv_scf|^2 =  3.731E-16

     Pert. #  1: Fermi energy shift (Ry) =     3.3881E-21    -1.2145E-44
     Pert. #  2: Fermi energy shift (Ry) =     3.7269E-20     9.3420E-45

      iter #   9 total cpu time : 10417.0 secs   av.it.:  23.8
      thresh= 1.932E-09 alpha_mix =  0.700 |ddv_scf|^2 =  9.485E-17

     Pert. #  1: Fermi energy shift (Ry) =    -5.6469E-21    -1.2145E-44
     Pert. #  2: Fermi energy shift (Ry) =     2.2588E-20     9.3420E-45

      iter #  10 total cpu time : 10530.2 secs   av.it.:  23.5
      thresh= 9.739E-10 alpha_mix =  0.700 |ddv_scf|^2 =  5.999E-17

     Pert. #  1: Fermi energy shift (Ry) =    -1.8070E-20    -1.2145E-44
     Pert. #  2: Fermi energy shift (Ry) =     3.1623E-20     9.3420E-45

      iter #  11 total cpu time : 10699.8 secs   av.it.:  21.9
      thresh= 7.745E-10 alpha_mix =  0.700 |ddv_scf|^2 =  5.646E-18

     End of self-consistent calculation

     Convergence has been achieved 


     Representation #  13 modes #  14  15

     Self-consistent Calculation

     Pert. #  1: Fermi energy shift (Ry) =     1.6263E-19    -3.5873E-43
     Pert. #  2: Fermi energy shift (Ry) =     0.0000E+00     1.4947E-43

      iter #   1 total cpu time : 10793.7 secs   av.it.:   6.7
      thresh= 1.000E-02 alpha_mix =  0.700 |ddv_scf|^2 =  1.807E-09

     Pert. #  1: Fermi energy shift (Ry) =    -1.1565E-18     9.5662E-43
     Pert. #  2: Fermi energy shift (Ry) =     9.3964E-19    -8.3704E-43

      iter #   2 total cpu time : 10923.5 secs   av.it.:  24.7
      thresh= 4.251E-06 alpha_mix =  0.700 |ddv_scf|^2 =  9.205E-09

     Pert. #  1: Fermi energy shift (Ry) =     7.2280E-19    -2.8699E-42
     Pert. #  2: Fermi energy shift (Ry) =     7.2280E-19     9.5662E-43

      iter #   3 total cpu time : 11035.2 secs   av.it.:  22.5
      thresh= 9.594E-06 alpha_mix =  0.700 |ddv_scf|^2 =  8.439E-09

     Pert. #  1: Fermi energy shift (Ry) =    -4.5175E-20     1.4349E-42
     Pert. #  2: Fermi energy shift (Ry) =     4.0658E-20    -3.5873E-43

      iter #   4 total cpu time : 11136.3 secs   av.it.:  21.5
      thresh= 9.187E-06 alpha_mix =  0.700 |ddv_scf|^2 =  1.076E-11

     Pert. #  1: Fermi energy shift (Ry) =    -3.6140E-20    -2.2421E-44
     Pert. #  2: Fermi energy shift (Ry) =     1.8070E-20     2.2421E-44

      iter #   5 total cpu time : 11251.0 secs   av.it.:  24.0
      thresh= 3.280E-07 alpha_mix =  0.700 |ddv_scf|^2 =  1.409E-12

     Pert. #  1: Fermi energy shift (Ry) =    -4.5175E-20    -2.9894E-43
     Pert. #  2: Fermi energy shift (Ry) =    -3.6140E-20     2.9894E-44

      iter #   6 total cpu time : 11354.2 secs   av.it.:  23.4
      thresh= 1.187E-07 alpha_mix =  0.700 |ddv_scf|^2 =  8.494E-14

     Pert. #  1: Fermi energy shift (Ry) =    -7.2280E-20    -1.9431E-43
     Pert. #  2: Fermi energy shift (Ry) =     2.7105E-20     7.4736E-45

      iter #   7 total cpu time : 11454.7 secs   av.it.:  23.0
      thresh= 2.914E-08 alpha_mix =  0.700 |ddv_scf|^2 =  3.555E-15

     Pert. #  1: Fermi energy shift (Ry) =    -6.3245E-20    -2.9894E-43
     Pert. #  2: Fermi energy shift (Ry) =     2.7105E-20     2.9894E-44

      iter #   8 total cpu time : 11566.2 secs   av.it.:  24.5
      thresh= 5.963E-09 alpha_mix =  0.700 |ddv_scf|^2 =  3.600E-15

     Pert. #  1: Fermi energy shift (Ry) =    -8.1315E-20    -2.9894E-43
     Pert. #  2: Fermi energy shift (Ry) =    -1.3553E-20     2.9894E-44

      iter #   9 total cpu time : 11677.7 secs   av.it.:  22.8
      thresh= 6.000E-09 alpha_mix =  0.700 |ddv_scf|^2 =  9.103E-17

     Pert. #  1: Fermi energy shift (Ry) =    -5.4210E-20    -2.9894E-43
     Pert. #  2: Fermi energy shift (Ry) =    -8.1315E-20     2.9894E-44

      iter #  10 total cpu time : 11784.7 secs   av.it.:  23.9
      thresh= 9.541E-10 alpha_mix =  0.700 |ddv_scf|^2 =  2.497E-17

     Pert. #  1: Fermi energy shift (Ry) =    -5.4210E-20    -2.9894E-43
     Pert. #  2: Fermi energy shift (Ry) =     0.0000E+00     2.9894E-44

      iter #  11 total cpu time : 11896.2 secs   av.it.:  22.9
      thresh= 4.997E-10 alpha_mix =  0.700 |ddv_scf|^2 =  1.687E-18

     End of self-consistent calculation

     Convergence has been achieved 


     Representation #  14 modes #  16  17

     Self-consistent Calculation

     Pert. #  1: Fermi energy shift (Ry) =    -3.3430E-19     2.9894E-43
     Pert. #  2: Fermi energy shift (Ry) =    -9.0350E-21     2.9894E-44

      iter #   1 total cpu time : 12000.5 secs   av.it.:   9.0
      thresh= 1.000E-02 alpha_mix =  0.700 |ddv_scf|^2 =  1.543E-08

     Pert. #  1: Fermi energy shift (Ry) =    -5.2403E-19     8.3704E-43
     Pert. #  2: Fermi energy shift (Ry) =    -2.3039E-19     5.3810E-43

      iter #   2 total cpu time : 12112.1 secs   av.it.:  24.7
      thresh= 1.242E-05 alpha_mix =  0.700 |ddv_scf|^2 =  2.228E-08

     Pert. #  1: Fermi energy shift (Ry) =     9.0350E-19    -9.5662E-43
     Pert. #  2: Fermi energy shift (Ry) =     7.2280E-20    -5.3810E-43

      iter #   3 total cpu time : 12225.8 secs   av.it.:  23.6
      thresh= 1.493E-05 alpha_mix =  0.700 |ddv_scf|^2 =  3.214E-08

     Pert. #  1: Fermi energy shift (Ry) =    -3.4333E-19     7.1746E-43
     Pert. #  2: Fermi energy shift (Ry) =     2.0329E-20    -8.9683E-44

      iter #   4 total cpu time : 12326.4 secs   av.it.:  21.1
      thresh= 1.793E-05 alpha_mix =  0.700 |ddv_scf|^2 =  2.629E-10

     Pert. #  1: Fermi energy shift (Ry) =    -1.5585E-19     4.1852E-43
     Pert. #  2: Fermi energy shift (Ry) =    -2.1458E-20     5.9789E-44

      iter #   5 total cpu time : 12486.0 secs   av.it.:  22.9
      thresh= 1.621E-06 alpha_mix =  0.700 |ddv_scf|^2 =  1.432E-12

     Pert. #  1: Fermi energy shift (Ry) =    -3.0719E-19     2.0926E-43
     Pert. #  2: Fermi energy shift (Ry) =    -3.3881E-21     2.9894E-44

      iter #   6 total cpu time : 12603.1 secs   av.it.:  23.9
      thresh= 1.197E-07 alpha_mix =  0.700 |ddv_scf|^2 =  1.254E-13

     Pert. #  1: Fermi energy shift (Ry) =    -1.1746E-19     1.9431E-43
     Pert. #  2: Fermi energy shift (Ry) =    -2.5976E-20     2.9894E-44

      iter #   7 total cpu time : 12709.0 secs   av.it.:  23.8
      thresh= 3.541E-08 alpha_mix =  0.700 |ddv_scf|^2 =  1.368E-14

     Pert. #  1: Fermi energy shift (Ry) =    -9.0350E-20     2.0926E-43
     Pert. #  2: Fermi energy shift (Ry) =    -6.4375E-20     2.9894E-44

      iter #   8 total cpu time : 12822.5 secs   av.it.:  24.0
      thresh= 1.170E-08 alpha_mix =  0.700 |ddv_scf|^2 =  3.725E-15

     Pert. #  1: Fermi energy shift (Ry) =    -9.7126E-20     2.0926E-43
     Pert. #  2: Fermi energy shift (Ry) =    -2.3717E-20     2.9894E-44

      iter #   9 total cpu time : 12945.1 secs   av.it.:  23.6
      thresh= 6.103E-09 alpha_mix =  0.700 |ddv_scf|^2 =  1.133E-16

     Pert. #  1: Fermi energy shift (Ry) =    -8.1315E-20     2.0926E-43
     Pert. #  2: Fermi energy shift (Ry) =     7.9056E-21     2.9894E-44

      iter #  10 total cpu time : 13060.2 secs   av.it.:  24.1
      thresh= 1.065E-09 alpha_mix =  0.700 |ddv_scf|^2 =  3.147E-17

     Pert. #  1: Fermi energy shift (Ry) =    -2.4395E-19     2.0926E-43
     Pert. #  2: Fermi energy shift (Ry) =     9.8256E-20     2.9894E-44

      iter #  11 total cpu time : 13186.3 secs   av.it.:  23.7
      thresh= 5.610E-10 alpha_mix =  0.700 |ddv_scf|^2 =  9.937E-18

     End of self-consistent calculation

     Convergence has been achieved 


     Representation #  15 modes #  18  19

     Self-consistent Calculation

     Pert. #  1: Fermi energy shift (Ry) =     4.6079E-19     1.4947E-43
     Pert. #  2: Fermi energy shift (Ry) =    -4.0658E-20    -7.4736E-44

      iter #   1 total cpu time : 13279.5 secs   av.it.:   7.0
      thresh= 1.000E-02 alpha_mix =  0.700 |ddv_scf|^2 =  2.862E-09

     Pert. #  1: Fermi energy shift (Ry) =     2.4575E-18    -4.7831E-43
     Pert. #  2: Fermi energy shift (Ry) =     2.8912E-19     3.5873E-43

      iter #   2 total cpu time : 13409.6 secs   av.it.:  25.5
      thresh= 5.350E-06 alpha_mix =  0.700 |ddv_scf|^2 =  7.684E-08

     Pert. #  1: Fermi energy shift (Ry) =    -3.6140E-19    -8.3704E-43
     Pert. #  2: Fermi energy shift (Ry) =    -1.3553E-20     7.1746E-43

      iter #   3 total cpu time : 13532.6 secs   av.it.:  21.1
      thresh= 2.772E-05 alpha_mix =  0.700 |ddv_scf|^2 =  1.152E-09

     Pert. #  1: Fermi energy shift (Ry) =    -1.2310E-19     8.9683E-44
     Pert. #  2: Fermi energy shift (Ry) =    -6.6633E-20     7.4736E-44

      iter #   4 total cpu time : 13646.5 secs   av.it.:  22.3
      thresh= 3.394E-06 alpha_mix =  0.700 |ddv_scf|^2 =  1.870E-11

     Pert. #  1: Fermi energy shift (Ry) =    -1.4851E-19    -2.9894E-44
     Pert. #  2: Fermi energy shift (Ry) =    -3.3599E-20     1.4947E-44

      iter #   5 total cpu time : 13756.4 secs   av.it.:  23.5
      thresh= 4.324E-07 alpha_mix =  0.700 |ddv_scf|^2 =  5.291E-13

     Pert. #  1: Fermi energy shift (Ry) =     7.2845E-20     0.0000E+00
     Pert. #  2: Fermi energy shift (Ry) =    -1.8070E-20    -7.4736E-44

      iter #   6 total cpu time : 13874.7 secs   av.it.:  23.8
      thresh= 7.274E-08 alpha_mix =  0.700 |ddv_scf|^2 =  1.898E-14

     Pert. #  1: Fermi energy shift (Ry) =    -8.1880E-20     0.0000E+00
     Pert. #  2: Fermi energy shift (Ry) =    -5.4210E-20    -3.7368E-44

      iter #   7 total cpu time : 13994.3 secs   av.it.:  24.4
      thresh= 1.378E-08 alpha_mix =  0.700 |ddv_scf|^2 =  2.245E-15

     Pert. #  1: Fermi energy shift (Ry) =     2.0611E-19     0.0000E+00
     Pert. #  2: Fermi energy shift (Ry) =    -1.1294E-21    -3.7368E-44

      iter #   8 total cpu time : 14119.4 secs   av.it.:  23.9
      thresh= 4.738E-09 alpha_mix =  0.700 |ddv_scf|^2 =  1.900E-16

     Pert. #  1: Fermi energy shift (Ry) =    -4.5740E-20     0.0000E+00
     Pert. #  2: Fermi energy shift (Ry) =    -3.3881E-20    -3.7368E-44

      iter #   9 total cpu time : 14238.9 secs   av.it.:  24.9
      thresh= 1.379E-09 alpha_mix =  0.700 |ddv_scf|^2 =  7.347E-16

     Pert. #  1: Fermi energy shift (Ry) =    -1.3609E-19     0.0000E+00
     Pert. #  2: Fermi energy shift (Ry) =    -5.5904E-20    -3.7368E-44

      iter #  10 total cpu time : 14345.1 secs   av.it.:  22.4
      thresh= 2.711E-09 alpha_mix =  0.700 |ddv_scf|^2 =  1.193E-16

     Pert. #  1: Fermi energy shift (Ry) =    -1.2197E-19     0.0000E+00
     Pert. #  2: Fermi energy shift (Ry) =     7.9056E-21    -3.7368E-44

      iter #  11 total cpu time : 14450.7 secs   av.it.:  22.6
      thresh= 1.092E-09 alpha_mix =  0.700 |ddv_scf|^2 =  5.871E-18

     End of self-consistent calculation

     Convergence has been achieved 


     Representation #  16 modes #  20  21

     Self-consistent Calculation

     Pert. #  1: Fermi energy shift (Ry) =    -9.0350E-20     2.9894E-44
     Pert. #  2: Fermi energy shift (Ry) =     1.8070E-20     1.4947E-44

      iter #   1 total cpu time : 14595.0 secs   av.it.:   9.0
      thresh= 1.000E-02 alpha_mix =  0.700 |ddv_scf|^2 =  1.497E-08

     Pert. #  1: Fermi energy shift (Ry) =    -9.3964E-19    -8.3704E-43
     Pert. #  2: Fermi energy shift (Ry) =     9.7578E-19     8.9683E-44

      iter #   2 total cpu time : 14758.4 secs   av.it.:  25.1
      thresh= 1.224E-05 alpha_mix =  0.700 |ddv_scf|^2 =  1.353E-07

     Pert. #  1: Fermi energy shift (Ry) =    -2.0961E-18    -4.7831E-43
     Pert. #  2: Fermi energy shift (Ry) =     4.6982E-19     0.0000E+00

      iter #   3 total cpu time : 14911.0 secs   av.it.:  22.0
      thresh= 3.678E-05 alpha_mix =  0.700 |ddv_scf|^2 =  4.882E-08

     Pert. #  1: Fermi energy shift (Ry) =     4.2916E-20    -8.9683E-44
     Pert. #  2: Fermi energy shift (Ry) =     5.6469E-21     1.4947E-43

      iter #   4 total cpu time : 15019.7 secs   av.it.:  21.7
      thresh= 2.209E-05 alpha_mix =  0.700 |ddv_scf|^2 =  5.810E-11

     Pert. #  1: Fermi energy shift (Ry) =     1.1294E-20     2.6158E-44
     Pert. #  2: Fermi energy shift (Ry) =     0.0000E+00     4.6710E-45

      iter #   5 total cpu time : 15156.5 secs   av.it.:  24.0
      thresh= 7.622E-07 alpha_mix =  0.700 |ddv_scf|^2 =  6.423E-12

     Pert. #  1: Fermi energy shift (Ry) =     0.0000E+00     3.7368E-45
     Pert. #  2: Fermi energy shift (Ry) =    -9.0350E-21     6.5394E-45

      iter #   6 total cpu time : 15262.2 secs   av.it.:  23.5
      thresh= 2.534E-07 alpha_mix =  0.700 |ddv_scf|^2 =  7.573E-14

     Pert. #  1: Fermi energy shift (Ry) =     2.2588E-21    -7.4736E-45
     Pert. #  2: Fermi energy shift (Ry) =     0.0000E+00     7.4736E-45

      iter #   7 total cpu time : 15371.9 secs   av.it.:  23.9
      thresh= 2.752E-08 alpha_mix =  0.700 |ddv_scf|^2 =  8.767E-15

     Pert. #  1: Fermi energy shift (Ry) =     1.1294E-20     3.7368E-45
     Pert. #  2: Fermi energy shift (Ry) =    -1.1294E-20     6.5394E-45

      iter #   8 total cpu time : 15478.0 secs   av.it.:  24.5
      thresh= 9.363E-09 alpha_mix =  0.700 |ddv_scf|^2 =  7.751E-15

     Pert. #  1: Fermi energy shift (Ry) =     2.2588E-21     3.7368E-45
     Pert. #  2: Fermi energy shift (Ry) =     4.5175E-21     6.5394E-45

      iter #   9 total cpu time : 15590.1 secs   av.it.:  23.1
      thresh= 8.804E-09 alpha_mix =  0.700 |ddv_scf|^2 =  4.265E-15

     Pert. #  1: Fermi energy shift (Ry) =    -6.7763E-21     3.7368E-45
     Pert. #  2: Fermi energy shift (Ry) =    -6.7763E-21     6.5394E-45

      iter #  10 total cpu time : 15688.5 secs   av.it.:  21.8
      thresh= 6.531E-09 alpha_mix =  0.700 |ddv_scf|^2 =  7.323E-17

     Pert. #  1: Fermi energy shift (Ry) =     6.7763E-21     3.7368E-45
     Pert. #  2: Fermi energy shift (Ry) =     4.5175E-21     6.5394E-45

      iter #  11 total cpu time : 15801.9 secs   av.it.:  23.9
      thresh= 8.557E-10 alpha_mix =  0.700 |ddv_scf|^2 =  1.706E-17

     Pert. #  1: Fermi energy shift (Ry) =    -2.2588E-21     3.7368E-45
     Pert. #  2: Fermi energy shift (Ry) =    -9.0350E-21     6.5394E-45

      iter #  12 total cpu time : 15922.9 secs   av.it.:  23.6
      thresh= 4.130E-10 alpha_mix =  0.700 |ddv_scf|^2 =  2.049E-18

     End of self-consistent calculation

     Convergence has been achieved 


     Representation #  17 modes #  22  23

     Self-consistent Calculation

     Pert. #  1: Fermi energy shift (Ry) =     6.3245E-19    -8.9683E-44
     Pert. #  2: Fermi energy shift (Ry) =     7.2280E-20    -2.9894E-44

      iter #   1 total cpu time : 16012.5 secs   av.it.:   7.0
      thresh= 1.000E-02 alpha_mix =  0.700 |ddv_scf|^2 =  7.874E-09

     Pert. #  1: Fermi energy shift (Ry) =     1.6624E-18     1.9132E-42
     Pert. #  2: Fermi energy shift (Ry) =     1.5902E-18     1.1958E-42

      iter #   2 total cpu time : 16127.7 secs   av.it.:  25.2
      thresh= 8.873E-06 alpha_mix =  0.700 |ddv_scf|^2 =  1.986E-07

     Pert. #  1: Fermi energy shift (Ry) =     5.4210E-19    -4.1852E-42
     Pert. #  2: Fermi energy shift (Ry) =    -3.7044E-19     4.7831E-43

      iter #   3 total cpu time : 16233.2 secs   av.it.:  21.4
      thresh= 4.457E-05 alpha_mix =  0.700 |ddv_scf|^2 =  5.234E-09

     Pert. #  1: Fermi energy shift (Ry) =     5.6469E-22     6.5768E-43
     Pert. #  2: Fermi energy shift (Ry) =     1.4117E-21    -3.9610E-43

      iter #   4 total cpu time : 16343.9 secs   av.it.:  21.9
      thresh= 7.235E-06 alpha_mix =  0.700 |ddv_scf|^2 =  1.591E-11

     Pert. #  1: Fermi energy shift (Ry) =     6.2822E-21     2.3355E-44
     Pert. #  2: Fermi energy shift (Ry) =     5.5763E-21     8.8399E-44

      iter #   5 total cpu time : 16459.6 secs   av.it.:  23.6
      thresh= 3.989E-07 alpha_mix =  0.700 |ddv_scf|^2 =  2.379E-12

     Pert. #  1: Fermi energy shift (Ry) =     5.6469E-22    -1.8684E-44
     Pert. #  2: Fermi energy shift (Ry) =     1.6941E-21     5.1381E-45

      iter #   6 total cpu time : 16564.9 secs   av.it.:  22.9
      thresh= 1.542E-07 alpha_mix =  0.700 |ddv_scf|^2 =  5.370E-14

     Pert. #  1: Fermi energy shift (Ry) =     2.8234E-22     2.4289E-44
     Pert. #  2: Fermi energy shift (Ry) =     8.4703E-22     7.4736E-45

      iter #   7 total cpu time : 16670.9 secs   av.it.:  23.7
      thresh= 2.317E-08 alpha_mix =  0.700 |ddv_scf|^2 =  8.155E-15

     Pert. #  1: Fermi energy shift (Ry) =    -2.8234E-22     2.4289E-44
     Pert. #  2: Fermi energy shift (Ry) =     1.8352E-21     7.4736E-45

      iter #   8 total cpu time : 16775.7 secs   av.it.:  23.9
      thresh= 9.030E-09 alpha_mix =  0.700 |ddv_scf|^2 =  4.110E-15

     Pert. #  1: Fermi energy shift (Ry) =     1.1294E-21     4.6710E-44
     Pert. #  2: Fermi energy shift (Ry) =    -1.4117E-22    -7.4736E-45

      iter #   9 total cpu time : 16882.6 secs   av.it.:  22.8
      thresh= 6.411E-09 alpha_mix =  0.700 |ddv_scf|^2 =  9.546E-17

     Pert. #  1: Fermi energy shift (Ry) =     2.8234E-22     2.4289E-44
     Pert. #  2: Fermi energy shift (Ry) =     8.4703E-22     7.4736E-45

      iter #  10 total cpu time : 16993.8 secs   av.it.:  24.7
      thresh= 9.770E-10 alpha_mix =  0.700 |ddv_scf|^2 =  1.490E-16

     Pert. #  1: Fermi energy shift (Ry) =     2.8234E-22     2.4289E-44
     Pert. #  2: Fermi energy shift (Ry) =     1.8352E-21     7.4736E-45

      iter #  11 total cpu time : 17101.1 secs   av.it.:  22.4
      thresh= 1.221E-09 alpha_mix =  0.700 |ddv_scf|^2 =  5.424E-18

     End of self-consistent calculation

     Convergence has been achieved 


     Representation #  18 modes #  24  25

     Self-consistent Calculation

     Pert. #  1: Fermi energy shift (Ry) =     1.0842E-19     3.5873E-43
     Pert. #  2: Fermi energy shift (Ry) =     9.9385E-20    -2.3915E-43

      iter #   1 total cpu time : 17188.7 secs   av.it.:   7.0
      thresh= 1.000E-02 alpha_mix =  0.700 |ddv_scf|^2 =  6.966E-09

     Pert. #  1: Fermi energy shift (Ry) =    -9.3964E-19    -1.4349E-42
     Pert. #  2: Fermi energy shift (Ry) =    -1.1565E-18     9.5662E-43

      iter #   2 total cpu time : 17305.5 secs   av.it.:  25.0
      thresh= 8.346E-06 alpha_mix =  0.700 |ddv_scf|^2 =  1.629E-07

     Pert. #  1: Fermi energy shift (Ry) =    -3.0719E-19     1.4349E-42
     Pert. #  2: Fermi energy shift (Ry) =     1.5360E-19    -1.4349E-42

      iter #   3 total cpu time : 17408.2 secs   av.it.:  21.4
      thresh= 4.036E-05 alpha_mix =  0.700 |ddv_scf|^2 =  5.982E-09

     Pert. #  1: Fermi energy shift (Ry) =     9.0350E-21    -1.4947E-44
     Pert. #  2: Fermi energy shift (Ry) =     4.5175E-21     1.4947E-44

      iter #   4 total cpu time : 17522.4 secs   av.it.:  21.8
      thresh= 7.735E-06 alpha_mix =  0.700 |ddv_scf|^2 =  4.568E-11

     Pert. #  1: Fermi energy shift (Ry) =     1.5388E-20     1.4947E-44
     Pert. #  2: Fermi energy shift (Ry) =     4.0234E-21    -1.4947E-44

      iter #   5 total cpu time : 17633.8 secs   av.it.:  23.4
      thresh= 6.759E-07 alpha_mix =  0.700 |ddv_scf|^2 =  5.334E-12

     Pert. #  1: Fermi energy shift (Ry) =    -3.3881E-21     1.1210E-44
     Pert. #  2: Fermi energy shift (Ry) =     4.5175E-21    -1.3079E-44

      iter #   6 total cpu time : 17740.4 secs   av.it.:  22.7
      thresh= 2.310E-07 alpha_mix =  0.700 |ddv_scf|^2 =  4.609E-14

     Pert. #  1: Fermi energy shift (Ry) =    -5.6469E-21     3.7368E-45
     Pert. #  2: Fermi energy shift (Ry) =     6.7763E-21    -3.7368E-45

      iter #   7 total cpu time : 17850.4 secs   av.it.:  23.0
      thresh= 2.147E-08 alpha_mix =  0.700 |ddv_scf|^2 =  4.498E-15

     Pert. #  1: Fermi energy shift (Ry) =    -6.7763E-21     1.8684E-44
     Pert. #  2: Fermi energy shift (Ry) =     5.0822E-21    -5.6052E-45

      iter #   8 total cpu time : 17963.6 secs   av.it.:  24.4
      thresh= 6.706E-09 alpha_mix =  0.700 |ddv_scf|^2 =  3.847E-15

     Pert. #  1: Fermi energy shift (Ry) =    -4.5175E-21     3.7368E-45
     Pert. #  2: Fermi energy shift (Ry) =     4.5175E-21    -3.7368E-45

      iter #   9 total cpu time : 18092.6 secs   av.it.:  22.7
      thresh= 6.203E-09 alpha_mix =  0.700 |ddv_scf|^2 =  1.044E-16

     Pert. #  1: Fermi energy shift (Ry) =    -4.5175E-21     1.8684E-44
     Pert. #  2: Fermi energy shift (Ry) =     1.0164E-20    -5.6052E-45

      iter #  10 total cpu time : 18201.3 secs   av.it.:  24.0
      thresh= 1.022E-09 alpha_mix =  0.700 |ddv_scf|^2 =  6.752E-17

     Pert. #  1: Fermi energy shift (Ry) =    -3.3881E-21     1.8684E-44
     Pert. #  2: Fermi energy shift (Ry) =     5.0822E-21    -5.6052E-45

      iter #  11 total cpu time : 18311.8 secs   av.it.:  23.4
      thresh= 8.217E-10 alpha_mix =  0.700 |ddv_scf|^2 =  3.651E-17

     Pert. #  1: Fermi energy shift (Ry) =    -2.2588E-21     1.8684E-44
     Pert. #  2: Fermi energy shift (Ry) =     9.0350E-21    -5.6052E-45

      iter #  12 total cpu time : 18423.4 secs   av.it.:  22.0
      thresh= 6.042E-10 alpha_mix =  0.700 |ddv_scf|^2 =  8.231E-19

     End of self-consistent calculation

     Convergence has been achieved 


     Representation #  19 modes #  26  27

     Self-consistent Calculation

     Pert. #  1: Fermi energy shift (Ry) =     7.2280E-20     2.3915E-43
     Pert. #  2: Fermi energy shift (Ry) =     2.5298E-19     2.0926E-43

      iter #   1 total cpu time : 18505.8 secs   av.it.:   7.2
      thresh= 1.000E-02 alpha_mix =  0.700 |ddv_scf|^2 =  6.704E-09

     Pert. #  1: Fermi energy shift (Ry) =    -1.1565E-18    -2.3915E-43
     Pert. #  2: Fermi energy shift (Ry) =     2.8912E-19    -8.3704E-43

      iter #   2 total cpu time : 18619.5 secs   av.it.:  25.5
      thresh= 8.188E-06 alpha_mix =  0.700 |ddv_scf|^2 =  1.930E-07

     Pert. #  1: Fermi energy shift (Ry) =     1.4456E-19     4.7831E-43
     Pert. #  2: Fermi energy shift (Ry) =     3.9754E-19    -3.5873E-43

      iter #   3 total cpu time : 18717.8 secs   av.it.:  21.2
      thresh= 4.394E-05 alpha_mix =  0.700 |ddv_scf|^2 =  2.444E-09

     Pert. #  1: Fermi energy shift (Ry) =    -9.0350E-21    -2.9894E-43
     Pert. #  2: Fermi energy shift (Ry) =    -9.0350E-21     5.9789E-44

      iter #   4 total cpu time : 18823.2 secs   av.it.:  21.9
      thresh= 4.944E-06 alpha_mix =  0.700 |ddv_scf|^2 =  1.309E-11

     Pert. #  1: Fermi energy shift (Ry) =    -1.8070E-20     1.4947E-44
     Pert. #  2: Fermi energy shift (Ry) =    -7.2280E-20    -7.4736E-45

      iter #   5 total cpu time : 18935.2 secs   av.it.:  23.6
      thresh= 3.618E-07 alpha_mix =  0.700 |ddv_scf|^2 =  1.956E-12

     Pert. #  1: Fermi energy shift (Ry) =    -9.0350E-21     0.0000E+00
     Pert. #  2: Fermi energy shift (Ry) =    -2.2588E-20    -2.2421E-44

      iter #   6 total cpu time : 19046.7 secs   av.it.:  23.1
      thresh= 1.399E-07 alpha_mix =  0.700 |ddv_scf|^2 =  2.553E-14

     Pert. #  1: Fermi energy shift (Ry) =    -9.0350E-21     3.7368E-44
     Pert. #  2: Fermi energy shift (Ry) =     0.0000E+00     4.4842E-44

      iter #   7 total cpu time : 19158.4 secs   av.it.:  23.9
      thresh= 1.598E-08 alpha_mix =  0.700 |ddv_scf|^2 =  5.465E-15

     Pert. #  1: Fermi energy shift (Ry) =    -3.6140E-20     7.4736E-45
     Pert. #  2: Fermi energy shift (Ry) =    -4.5175E-21     2.6158E-44

      iter #   8 total cpu time : 19263.3 secs   av.it.:  23.9
      thresh= 7.393E-09 alpha_mix =  0.700 |ddv_scf|^2 =  1.428E-15

     Pert. #  1: Fermi energy shift (Ry) =    -3.6140E-20     3.7368E-44
     Pert. #  2: Fermi energy shift (Ry) =    -2.7105E-20     4.4842E-44

      iter #   9 total cpu time : 19374.0 secs   av.it.:  23.9
      thresh= 3.779E-09 alpha_mix =  0.700 |ddv_scf|^2 =  6.311E-17

     Pert. #  1: Fermi energy shift (Ry) =    -1.8070E-20     3.7368E-44
     Pert. #  2: Fermi energy shift (Ry) =    -4.5175E-21     4.4842E-44

      iter #  10 total cpu time : 19494.9 secs   av.it.:  24.5
      thresh= 7.944E-10 alpha_mix =  0.700 |ddv_scf|^2 =  9.326E-18

     End of self-consistent calculation

     Convergence has been achieved 


     Representation #  20 modes #  28  29

     Self-consistent Calculation

     Pert. #  1: Fermi energy shift (Ry) =     4.3368E-19     0.0000E+00
     Pert. #  2: Fermi energy shift (Ry) =    -7.2280E-20     0.0000E+00

      iter #   1 total cpu time : 19587.9 secs   av.it.:   9.0
      thresh= 1.000E-02 alpha_mix =  0.700 |ddv_scf|^2 =  1.578E-08

     Pert. #  1: Fermi energy shift (Ry) =    -6.9389E-18     5.9789E-44
     Pert. #  2: Fermi energy shift (Ry) =     4.6259E-18     2.3915E-43

      iter #   2 total cpu time : 19706.9 secs   av.it.:  25.7
      thresh= 1.256E-05 alpha_mix =  0.700 |ddv_scf|^2 =  4.044E-07

     Pert. #  1: Fermi energy shift (Ry) =     1.4456E-19     5.3810E-43
     Pert. #  2: Fermi energy shift (Ry) =     7.2280E-20     3.5873E-43

      iter #   3 total cpu time : 19835.3 secs   av.it.:  21.3
      thresh= 6.360E-05 alpha_mix =  0.700 |ddv_scf|^2 =  7.872E-09

     Pert. #  1: Fermi energy shift (Ry) =    -2.7105E-20     7.4736E-45
     Pert. #  2: Fermi energy shift (Ry) =     3.6140E-20     2.9894E-44

      iter #   4 total cpu time : 19943.4 secs   av.it.:  22.5
      thresh= 8.872E-06 alpha_mix =  0.700 |ddv_scf|^2 =  4.884E-11

     Pert. #  1: Fermi energy shift (Ry) =    -2.2588E-20     9.3420E-46
     Pert. #  2: Fermi energy shift (Ry) =     3.3881E-20     3.7368E-45

      iter #   5 total cpu time : 20108.0 secs   av.it.:  23.8
      thresh= 6.988E-07 alpha_mix =  0.700 |ddv_scf|^2 =  4.967E-12

     Pert. #  1: Fermi energy shift (Ry) =     6.7763E-21     0.0000E+00
     Pert. #  2: Fermi energy shift (Ry) =     5.0822E-21     0.0000E+00

      iter #   6 total cpu time : 20258.2 secs   av.it.:  22.8
      thresh= 2.229E-07 alpha_mix =  0.700 |ddv_scf|^2 =  1.648E-13

     Pert. #  1: Fermi energy shift (Ry) =    -1.1294E-21     0.0000E+00
     Pert. #  2: Fermi energy shift (Ry) =     0.0000E+00     0.0000E+00

      iter #   7 total cpu time : 20367.2 secs   av.it.:  23.1
      thresh= 4.059E-08 alpha_mix =  0.700 |ddv_scf|^2 =  1.348E-14

     Pert. #  1: Fermi energy shift (Ry) =    -4.5175E-21     0.0000E+00
     Pert. #  2: Fermi energy shift (Ry) =    -5.6469E-21     0.0000E+00

      iter #   8 total cpu time : 20476.4 secs   av.it.:  24.5
      thresh= 1.161E-08 alpha_mix =  0.700 |ddv_scf|^2 =  1.599E-14

     Pert. #  1: Fermi energy shift (Ry) =    -5.6469E-21     0.0000E+00
     Pert. #  2: Fermi energy shift (Ry) =     5.0822E-21     0.0000E+00

      iter #   9 total cpu time : 20578.4 secs   av.it.:  22.5
      thresh= 1.265E-08 alpha_mix =  0.700 |ddv_scf|^2 =  1.796E-16

     Pert. #  1: Fermi energy shift (Ry) =    -2.2588E-21     0.0000E+00
     Pert. #  2: Fermi energy shift (Ry) =    -1.6941E-21     0.0000E+00

      iter #  10 total cpu time : 20687.2 secs   av.it.:  24.9
      thresh= 1.340E-09 alpha_mix =  0.700 |ddv_scf|^2 =  3.773E-16

     Pert. #  1: Fermi energy shift (Ry) =     2.2588E-21     0.0000E+00
     Pert. #  2: Fermi energy shift (Ry) =     3.3881E-21     0.0000E+00

      iter #  11 total cpu time : 20794.7 secs   av.it.:  22.7
      thresh= 1.942E-09 alpha_mix =  0.700 |ddv_scf|^2 =  2.515E-17

     Pert. #  1: Fermi energy shift (Ry) =    -4.5175E-21     0.0000E+00
     Pert. #  2: Fermi energy shift (Ry) =    -5.6469E-22     0.0000E+00

      iter #  12 total cpu time : 20905.2 secs   av.it.:  23.9
      thresh= 5.015E-10 alpha_mix =  0.700 |ddv_scf|^2 =  2.170E-17

     Pert. #  1: Fermi energy shift (Ry) =    -2.2588E-21     0.0000E+00
     Pert. #  2: Fermi energy shift (Ry) =     5.6469E-22     0.0000E+00

      iter #  13 total cpu time : 21013.7 secs   av.it.:  21.9
      thresh= 4.658E-10 alpha_mix =  0.700 |ddv_scf|^2 =  1.349E-18

     End of self-consistent calculation

     Convergence has been achieved 


     Representation #  21 modes #  30  31

     Self-consistent Calculation

     Pert. #  1: Fermi energy shift (Ry) =    -7.2280E-20     0.0000E+00
     Pert. #  2: Fermi energy shift (Ry) =    -9.3964E-19     1.7937E-43

      iter #   1 total cpu time : 21129.7 secs   av.it.:   7.0
      thresh= 1.000E-02 alpha_mix =  0.700 |ddv_scf|^2 =  6.504E-09

     Pert. #  1: Fermi energy shift (Ry) =     1.7347E-18    -9.5662E-43
     Pert. #  2: Fermi energy shift (Ry) =     6.3607E-18     0.0000E+00

      iter #   2 total cpu time : 21247.1 secs   av.it.:  25.2
      thresh= 8.065E-06 alpha_mix =  0.700 |ddv_scf|^2 =  1.680E-07

     Pert. #  1: Fermi energy shift (Ry) =    -2.8912E-19    -1.9132E-42
     Pert. #  2: Fermi energy shift (Ry) =     0.0000E+00     0.0000E+00

      iter #   3 total cpu time : 21352.8 secs   av.it.:  21.3
      thresh= 4.099E-05 alpha_mix =  0.700 |ddv_scf|^2 =  3.897E-09

     Pert. #  1: Fermi energy shift (Ry) =    -9.0350E-21     2.3915E-43
     Pert. #  2: Fermi energy shift (Ry) =    -3.3881E-20     0.0000E+00

      iter #   4 total cpu time : 21463.8 secs   av.it.:  21.8
      thresh= 6.242E-06 alpha_mix =  0.700 |ddv_scf|^2 =  2.610E-11

     Pert. #  1: Fermi energy shift (Ry) =     3.6140E-20     7.4736E-45
     Pert. #  2: Fermi energy shift (Ry) =     9.0350E-21    -7.4736E-45

      iter #   5 total cpu time : 21573.2 secs   av.it.:  23.7
      thresh= 5.108E-07 alpha_mix =  0.700 |ddv_scf|^2 =  4.196E-12

     Pert. #  1: Fermi energy shift (Ry) =     1.8070E-20     0.0000E+00
     Pert. #  2: Fermi energy shift (Ry) =     6.7763E-20     5.2315E-44

      iter #   6 total cpu time : 21685.3 secs   av.it.:  22.8
      thresh= 2.049E-07 alpha_mix =  0.700 |ddv_scf|^2 =  5.046E-14

     Pert. #  1: Fermi energy shift (Ry) =     9.0350E-21     7.4736E-45
     Pert. #  2: Fermi energy shift (Ry) =    -4.5175E-21     1.1210E-44

      iter #   7 total cpu time : 21797.6 secs   av.it.:  22.9
      thresh= 2.246E-08 alpha_mix =  0.700 |ddv_scf|^2 =  7.007E-15

     Pert. #  1: Fermi energy shift (Ry) =     0.0000E+00    -7.4736E-45
     Pert. #  2: Fermi energy shift (Ry) =     3.1623E-20    -2.9894E-44

      iter #   8 total cpu time : 21907.1 secs   av.it.:  24.1
      thresh= 8.371E-09 alpha_mix =  0.700 |ddv_scf|^2 =  6.477E-15

     Pert. #  1: Fermi energy shift (Ry) =     4.5175E-21     0.0000E+00
     Pert. #  2: Fermi energy shift (Ry) =     2.7105E-20    -4.4842E-44

      iter #   9 total cpu time : 22011.1 secs   av.it.:  22.5
      thresh= 8.048E-09 alpha_mix =  0.700 |ddv_scf|^2 =  1.128E-16

     Pert. #  1: Fermi energy shift (Ry) =     2.2588E-20    -7.4736E-45
     Pert. #  2: Fermi energy shift (Ry) =     2.2588E-21    -2.9894E-44

      iter #  10 total cpu time : 22117.8 secs   av.it.:  24.1
      thresh= 1.062E-09 alpha_mix =  0.700 |ddv_scf|^2 =  7.242E-17

     Pert. #  1: Fermi energy shift (Ry) =     2.2588E-20    -7.4736E-45
     Pert. #  2: Fermi energy shift (Ry) =     4.2916E-20    -2.9894E-44

      iter #  11 total cpu time : 22222.7 secs   av.it.:  22.8
      thresh= 8.510E-10 alpha_mix =  0.700 |ddv_scf|^2 =  3.580E-17

     Pert. #  1: Fermi energy shift (Ry) =     2.2588E-20    -7.4736E-45
     Pert. #  2: Fermi energy shift (Ry) =     2.2588E-20    -2.9894E-44

      iter #  12 total cpu time : 22338.9 secs   av.it.:  22.8
      thresh= 5.983E-10 alpha_mix =  0.700 |ddv_scf|^2 =  3.643E-18

     End of self-consistent calculation

     Convergence has been achieved 


     Representation #  22 modes #  32  33

     Self-consistent Calculation

     Pert. #  1: Fermi energy shift (Ry) =     2.8912E-19    -1.7937E-43
     Pert. #  2: Fermi energy shift (Ry) =    -7.2280E-19     2.0926E-43

      iter #   1 total cpu time : 22421.5 secs   av.it.:   8.0
      thresh= 1.000E-02 alpha_mix =  0.700 |ddv_scf|^2 =  1.449E-08

     Pert. #  1: Fermi energy shift (Ry) =    -2.3130E-18    -9.5662E-43
     Pert. #  2: Fermi energy shift (Ry) =    -4.6259E-18     2.8699E-42

      iter #   2 total cpu time : 22543.9 secs   av.it.:  25.2
      thresh= 1.204E-05 alpha_mix =  0.700 |ddv_scf|^2 =  3.837E-07

     Pert. #  1: Fermi energy shift (Ry) =     4.3368E-19    -1.1958E-43
     Pert. #  2: Fermi energy shift (Ry) =     8.6736E-19     3.5873E-43

      iter #   3 total cpu time : 22656.2 secs   av.it.:  21.3
      thresh= 6.194E-05 alpha_mix =  0.700 |ddv_scf|^2 =  8.664E-09

     Pert. #  1: Fermi energy shift (Ry) =     9.0350E-21    -7.1746E-43
     Pert. #  2: Fermi energy shift (Ry) =     1.6941E-21     0.0000E+00

      iter #   4 total cpu time : 22765.3 secs   av.it.:  21.9
      thresh= 9.308E-06 alpha_mix =  0.700 |ddv_scf|^2 =  2.658E-11

     Pert. #  1: Fermi energy shift (Ry) =    -1.3553E-20    -7.4736E-44
     Pert. #  2: Fermi energy shift (Ry) =     9.0350E-21     5.9789E-44

      iter #   5 total cpu time : 22885.0 secs   av.it.:  23.8
      thresh= 5.156E-07 alpha_mix =  0.700 |ddv_scf|^2 =  5.690E-12

     Pert. #  1: Fermi energy shift (Ry) =    -2.2588E-21    -2.9894E-44
     Pert. #  2: Fermi energy shift (Ry) =    -4.5175E-21     1.4947E-44

      iter #   6 total cpu time : 22993.5 secs   av.it.:  22.8
      thresh= 2.385E-07 alpha_mix =  0.700 |ddv_scf|^2 =  4.259E-14

     Pert. #  1: Fermi energy shift (Ry) =     0.0000E+00    -4.1105E-44
     Pert. #  2: Fermi energy shift (Ry) =     0.0000E+00    -2.9894E-44

      iter #   7 total cpu time : 23100.4 secs   av.it.:  24.4
      thresh= 2.064E-08 alpha_mix =  0.700 |ddv_scf|^2 =  1.473E-14

     Pert. #  1: Fermi energy shift (Ry) =    -2.2588E-21    -4.1105E-44
     Pert. #  2: Fermi energy shift (Ry) =    -5.6469E-21    -2.9894E-44

      iter #   8 total cpu time : 23205.7 secs   av.it.:  23.5
      thresh= 1.214E-08 alpha_mix =  0.700 |ddv_scf|^2 =  3.359E-15

     Pert. #  1: Fermi energy shift (Ry) =    -4.5175E-21    -4.1105E-44
     Pert. #  2: Fermi energy shift (Ry) =     1.1294E-21    -2.9894E-44

      iter #   9 total cpu time : 23314.1 secs   av.it.:  23.0
      thresh= 5.796E-09 alpha_mix =  0.700 |ddv_scf|^2 =  1.764E-16

     Pert. #  1: Fermi energy shift (Ry) =    -4.5175E-21    -4.1105E-44
     Pert. #  2: Fermi energy shift (Ry) =    -1.1294E-21    -2.9894E-44

      iter #  10 total cpu time : 23421.3 secs   av.it.:  24.7
      thresh= 1.328E-09 alpha_mix =  0.700 |ddv_scf|^2 =  2.589E-16

     Pert. #  1: Fermi energy shift (Ry) =     6.7763E-21    -4.1105E-44
     Pert. #  2: Fermi energy shift (Ry) =    -3.3881E-21    -2.9894E-44

      iter #  11 total cpu time : 23532.6 secs   av.it.:  21.9
      thresh= 1.609E-09 alpha_mix =  0.700 |ddv_scf|^2 =  7.062E-17

     Pert. #  1: Fermi energy shift (Ry) =    -2.2588E-21    -4.1105E-44
     Pert. #  2: Fermi energy shift (Ry) =     0.0000E+00    -2.9894E-44

      iter #  12 total cpu time : 23659.6 secs   av.it.:  22.6
      thresh= 8.404E-10 alpha_mix =  0.700 |ddv_scf|^2 =  4.250E-18

     End of self-consistent calculation

     Convergence has been achieved 


     Representation #  23 mode #  34

     Self-consistent Calculation

     Pert. #  1: Fermi energy shift (Ry) =    -1.0771E-27     0.0000E+00

      iter #   1 total cpu time : 23731.7 secs   av.it.:   8.1
      thresh= 1.000E-02 alpha_mix =  0.700 |ddv_scf|^2 =  1.279E-08

     Pert. #  1: Fermi energy shift (Ry) =    -5.3853E-28     0.0000E+00

      iter #   2 total cpu time : 23794.1 secs   av.it.:  22.2
      thresh= 1.131E-05 alpha_mix =  0.700 |ddv_scf|^2 =  2.477E-09

     Pert. #  1: Fermi energy shift (Ry) =     0.0000E+00     1.9592E-39

      iter #   3 total cpu time : 23862.4 secs   av.it.:  21.5
      thresh= 4.977E-06 alpha_mix =  0.700 |ddv_scf|^2 =  5.742E-12

     Pert. #  1: Fermi energy shift (Ry) =     0.0000E+00    -6.1224E-41

      iter #   4 total cpu time : 23926.9 secs   av.it.:  22.1
      thresh= 2.396E-07 alpha_mix =  0.700 |ddv_scf|^2 =  2.255E-13

     Pert. #  1: Fermi energy shift (Ry) =     0.0000E+00     0.0000E+00

      iter #   5 total cpu time : 23996.6 secs   av.it.:  21.4
      thresh= 4.749E-08 alpha_mix =  0.700 |ddv_scf|^2 =  1.965E-15

     Pert. #  1: Fermi energy shift (Ry) =     1.6829E-29     4.7831E-43

      iter #   6 total cpu time : 24061.5 secs   av.it.:  22.0
      thresh= 4.433E-09 alpha_mix =  0.700 |ddv_scf|^2 =  5.379E-17

     Pert. #  1: Fermi energy shift (Ry) =     0.0000E+00     0.0000E+00

      iter #   7 total cpu time : 24213.7 secs   av.it.:  22.5
      thresh= 7.334E-10 alpha_mix =  0.700 |ddv_scf|^2 =  4.405E-18

     End of self-consistent calculation

     Convergence has been achieved 


     Representation #  24 mode #  35

     Self-consistent Calculation

     Pert. #  1: Fermi energy shift (Ry) =     1.6156E-27    -2.0062E-36

      iter #   1 total cpu time : 24275.1 secs   av.it.:   6.0
      thresh= 1.000E-02 alpha_mix =  0.700 |ddv_scf|^2 =  1.989E-09

     Pert. #  1: Fermi energy shift (Ry) =    -2.0195E-28     0.0000E+00

      iter #   2 total cpu time : 24343.3 secs   av.it.:  21.8
[...]

     Self-consistent Calculation

      iter #   1 total cpu time :353910.9 secs   av.it.:   7.6
      thresh= 1.000E-02 alpha_mix =  0.700 |ddv_scf|^2 =  4.012E-07

      iter #   2 total cpu time :354039.7 secs   av.it.:  22.7
      thresh= 6.334E-05 alpha_mix =  0.700 |ddv_scf|^2 =  6.841E-05

      iter #   3 total cpu time :354157.3 secs   av.it.:  16.6
      thresh= 8.271E-04 alpha_mix =  0.700 |ddv_scf|^2 =  1.823E-07

      iter #   4 total cpu time :354264.6 secs   av.it.:  19.1
      thresh= 4.269E-05 alpha_mix =  0.700 |ddv_scf|^2 =  1.469E-07

      iter #   5 total cpu time :354391.7 secs   av.it.:  19.2
      thresh= 3.833E-05 alpha_mix =  0.700 |ddv_scf|^2 =  6.767E-08

      iter #   6 total cpu time :354495.1 secs   av.it.:  18.9
      thresh= 2.601E-05 alpha_mix =  0.700 |ddv_scf|^2 =  5.699E-10

      iter #   7 total cpu time :354618.8 secs   av.it.:  20.5
      thresh= 2.387E-06 alpha_mix =  0.700 |ddv_scf|^2 =  3.518E-10

      iter #   8 total cpu time :354727.5 secs   av.it.:  18.7
      thresh= 1.876E-06 alpha_mix =  0.700 |ddv_scf|^2 =  1.326E-11

      iter #   9 total cpu time :354841.5 secs   av.it.:  19.8
      thresh= 3.641E-07 alpha_mix =  0.700 |ddv_scf|^2 =  2.225E-12

      iter #  10 total cpu time :354945.7 secs   av.it.:  20.0
      thresh= 1.492E-07 alpha_mix =  0.700 |ddv_scf|^2 =  7.872E-14

      iter #  11 total cpu time :355059.0 secs   av.it.:  20.2
      thresh= 2.806E-08 alpha_mix =  0.700 |ddv_scf|^2 =  7.976E-15

      iter #  12 total cpu time :355169.4 secs   av.it.:  20.4
      thresh= 8.931E-09 alpha_mix =  0.700 |ddv_scf|^2 =  5.131E-15

      iter #  13 total cpu time :355281.5 secs   av.it.:  20.4
      thresh= 7.163E-09 alpha_mix =  0.700 |ddv_scf|^2 =  1.203E-15

      iter #  14 total cpu time :355395.6 secs   av.it.:  20.5
      thresh= 3.469E-09 alpha_mix =  0.700 |ddv_scf|^2 =  1.682E-15

      iter #  15 total cpu time :355512.0 secs   av.it.:  19.5
      thresh= 4.101E-09 alpha_mix =  0.700 |ddv_scf|^2 =  2.993E-16

      iter #  16 total cpu time :355618.6 secs   av.it.:  20.0
      thresh= 1.730E-09 alpha_mix =  0.700 |ddv_scf|^2 =  1.725E-16

      iter #  17 total cpu time :355731.2 secs   av.it.:  19.9
      thresh= 1.313E-09 alpha_mix =  0.700 |ddv_scf|^2 =  4.304E-17

      iter #  18 total cpu time :355844.5 secs   av.it.:  19.9
      thresh= 6.561E-10 alpha_mix =  0.700 |ddv_scf|^2 =  3.657E-18

     End of self-consistent calculation

     Convergence has been achieved 


     Representation #  65 mode #  66

     Self-consistent Calculation

      iter #   1 total cpu time :356000.5 secs   av.it.:   8.0
      thresh= 1.000E-02 alpha_mix =  0.700 |ddv_scf|^2 =  1.324E-06

      iter #   2 total cpu time :356136.0 secs   av.it.:  22.5
      thresh= 1.151E-04 alpha_mix =  0.700 |ddv_scf|^2 =  2.085E-04

      iter #   3 total cpu time :356264.9 secs   av.it.:  16.7
      thresh= 1.444E-03 alpha_mix =  0.700 |ddv_scf|^2 =  8.747E-07

      iter #   4 total cpu time :356381.5 secs   av.it.:  18.9
      thresh= 9.352E-05 alpha_mix =  0.700 |ddv_scf|^2 =  1.339E-07

      iter #   5 total cpu time :356513.6 secs   av.it.:  18.6
      thresh= 3.660E-05 alpha_mix =  0.700 |ddv_scf|^2 =  1.125E-07

      iter #   6 total cpu time :356628.6 secs   av.it.:  17.9
      thresh= 3.354E-05 alpha_mix =  0.700 |ddv_scf|^2 =  1.520E-09

      iter #   7 total cpu time :356739.0 secs   av.it.:  19.8
      thresh= 3.898E-06 alpha_mix =  0.700 |ddv_scf|^2 =  2.432E-10

      iter #   8 total cpu time :356849.4 secs   av.it.:  19.7
      thresh= 1.559E-06 alpha_mix =  0.700 |ddv_scf|^2 =  2.030E-11

      iter #   9 total cpu time :356963.6 secs   av.it.:  20.0
      thresh= 4.506E-07 alpha_mix =  0.700 |ddv_scf|^2 =  1.988E-12

      iter #  10 total cpu time :357074.6 secs   av.it.:  20.5
      thresh= 1.410E-07 alpha_mix =  0.700 |ddv_scf|^2 =  3.489E-12

      iter #  11 total cpu time :357193.6 secs   av.it.:  17.7
      thresh= 1.868E-07 alpha_mix =  0.700 |ddv_scf|^2 =  1.559E-13

      iter #  12 total cpu time :357295.2 secs   av.it.:  19.6
      thresh= 3.948E-08 alpha_mix =  0.700 |ddv_scf|^2 =  8.600E-15

      iter #  13 total cpu time :357419.1 secs   av.it.:  20.6
      thresh= 9.274E-09 alpha_mix =  0.700 |ddv_scf|^2 =  8.388E-16

      iter #  14 total cpu time :357528.9 secs   av.it.:  21.8
      thresh= 2.896E-09 alpha_mix =  0.700 |ddv_scf|^2 =  1.403E-15

      iter #  15 total cpu time :357647.7 secs   av.it.:  19.4
      thresh= 3.745E-09 alpha_mix =  0.700 |ddv_scf|^2 =  7.924E-17

      iter #  16 total cpu time :357776.8 secs   av.it.:  22.6
      thresh= 8.902E-10 alpha_mix =  0.700 |ddv_scf|^2 =  6.100E-16

      iter #  17 total cpu time :357897.9 secs   av.it.:  18.9
      thresh= 2.470E-09 alpha_mix =  0.700 |ddv_scf|^2 =  1.135E-16

      iter #  18 total cpu time :358013.4 secs   av.it.:  19.5
      thresh= 1.065E-09 alpha_mix =  0.700 |ddv_scf|^2 =  3.119E-17

      iter #  19 total cpu time :358127.4 secs   av.it.:  19.9
      thresh= 5.585E-10 alpha_mix =  0.700 |ddv_scf|^2 =  5.917E-18

     End of self-consistent calculation

     Convergence has been achieved 

     Number of q in the star =    3
     List of q in the star:
          1   0.288675135  -0.500000000  -0.182266641
          2   0.577350269   0.000000000   0.182266641
          3  -0.288675135  -0.500000000   0.182266641

     Diagonalizing the dynamical matrix

     q = (    0.288675135  -0.500000000  -0.182266641 ) 

 **************************************************************************
     freq (    1) =       1.447367 [THz] =      48.278951 [cm-1]
     freq (    2) =       1.552191 [THz] =      51.775527 [cm-1]
     freq (    3) =       1.635201 [THz] =      54.544425 [cm-1]
     freq (    4) =       1.636035 [THz] =      54.572263 [cm-1]
     freq (    5) =       1.793313 [THz] =      59.818468 [cm-1]
     freq (    6) =       1.849370 [THz] =      61.688341 [cm-1]
     freq (    7) =       2.109341 [THz] =      70.360033 [cm-1]
     freq (    8) =       2.143487 [THz] =      71.499025 [cm-1]
     freq (    9) =       2.219174 [THz] =      74.023675 [cm-1]
     freq (   10) =       2.243623 [THz] =      74.839206 [cm-1]
     freq (   11) =       2.658152 [THz] =      88.666401 [cm-1]
     freq (   12) =       2.667076 [THz] =      88.964083 [cm-1]
     freq (   13) =       2.804036 [THz] =      93.532580 [cm-1]
     freq (   14) =       2.815097 [THz] =      93.901529 [cm-1]
     freq (   15) =       2.880405 [THz] =      96.079961 [cm-1]
     freq (   16) =       2.970087 [THz] =      99.071426 [cm-1]
     freq (   17) =       3.207752 [THz] =     106.999103 [cm-1]
     freq (   18) =       3.253011 [THz] =     108.508774 [cm-1]
     freq (   19) =       3.266325 [THz] =     108.952885 [cm-1]
     freq (   20) =       3.328523 [THz] =     111.027566 [cm-1]
     freq (   21) =       3.369258 [THz] =     112.386352 [cm-1]
     freq (   22) =       3.383781 [THz] =     112.870778 [cm-1]
     freq (   23) =       3.458127 [THz] =     115.350704 [cm-1]
     freq (   24) =       3.583183 [THz] =     119.522109 [cm-1]
     freq (   25) =       3.752376 [THz] =     125.165787 [cm-1]
     freq (   26) =       3.779140 [THz] =     126.058539 [cm-1]
     freq (   27) =       3.894048 [THz] =     129.891472 [cm-1]
     freq (   28) =       3.906399 [THz] =     130.303442 [cm-1]
     freq (   29) =       4.094328 [THz] =     136.572089 [cm-1]
     freq (   30) =       4.105751 [THz] =     136.953097 [cm-1]
     freq (   31) =       4.180362 [THz] =     139.441867 [cm-1]
     freq (   32) =       4.207583 [THz] =     140.349867 [cm-1]
     freq (   33) =       4.271795 [THz] =     142.491734 [cm-1]
     freq (   34) =       4.309870 [THz] =     143.761773 [cm-1]
     freq (   35) =       4.329595 [THz] =     144.419749 [cm-1]
     freq (   36) =       4.394912 [THz] =     146.598493 [cm-1]
     freq (   37) =       4.549171 [THz] =     151.744013 [cm-1]
     freq (   38) =       4.566575 [THz] =     152.324547 [cm-1]
     freq (   39) =       4.590919 [THz] =     153.136572 [cm-1]
     freq (   40) =       4.625504 [THz] =     154.290212 [cm-1]
     freq (   41) =       4.702425 [THz] =     156.856026 [cm-1]
     freq (   42) =       4.761619 [THz] =     158.830521 [cm-1]
     freq (   43) =       5.113692 [THz] =     170.574412 [cm-1]
     freq (   44) =       5.123201 [THz] =     170.891599 [cm-1]
     freq (   45) =       5.133344 [THz] =     171.229935 [cm-1]
     freq (   46) =       5.137909 [THz] =     171.382190 [cm-1]
     freq (   47) =       5.164985 [THz] =     172.285350 [cm-1]
     freq (   48) =       5.850527 [THz] =     195.152576 [cm-1]
     freq (   49) =       5.947921 [THz] =     198.401283 [cm-1]
     freq (   50) =       5.950372 [THz] =     198.483054 [cm-1]
     freq (   51) =       6.449030 [THz] =     215.116478 [cm-1]
     freq (   52) =       6.462074 [THz] =     215.551571 [cm-1]
     freq (   53) =       6.695940 [THz] =     223.352515 [cm-1]
     freq (   54) =       6.719164 [THz] =     224.127178 [cm-1]
     freq (   55) =       7.149575 [THz] =     238.484150 [cm-1]
     freq (   56) =       7.219235 [THz] =     240.807764 [cm-1]
     freq (   57) =       7.471269 [THz] =     249.214701 [cm-1]
     freq (   58) =       7.623513 [THz] =     254.293021 [cm-1]
     freq (   59) =       7.695523 [THz] =     256.695030 [cm-1]
     freq (   60) =       7.865994 [THz] =     262.381304 [cm-1]
     freq (   61) =       8.008186 [THz] =     267.124338 [cm-1]
     freq (   62) =       8.059631 [THz] =     268.840338 [cm-1]
     freq (   63) =       8.347490 [THz] =     278.442279 [cm-1]
     freq (   64) =       8.363050 [THz] =     278.961332 [cm-1]
     freq (   65) =       8.546014 [THz] =     285.064329 [cm-1]
     freq (   66) =       8.693596 [THz] =     289.987164 [cm-1]
 **************************************************************************

     Mode symmetry, C_2h (2/m)  point group:

     freq (   1-   1) =         48.3  [cm-1]   --> B_u                
     freq (   2-   2) =         51.8  [cm-1]   --> A_g                
     freq (   3-   3) =         54.5  [cm-1]   --> B_g                
     freq (   4-   4) =         54.6  [cm-1]   --> A_u                
     freq (   5-   5) =         59.8  [cm-1]   --> B_u                
     freq (   6-   6) =         61.7  [cm-1]   --> A_g                
     freq (   7-   7) =         70.4  [cm-1]   --> A_u                
     freq (   8-   8) =         71.5  [cm-1]   --> B_g                
     freq (   9-   9) =         74.0  [cm-1]   --> A_u                
     freq (  10-  10) =         74.8  [cm-1]   --> B_g                
     freq (  11-  11) =         88.7  [cm-1]   --> B_u                
     freq (  12-  12) =         89.0  [cm-1]   --> A_g                
     freq (  13-  13) =         93.5  [cm-1]   --> B_g                
     freq (  14-  14) =         93.9  [cm-1]   --> B_u                
     freq (  15-  15) =         96.1  [cm-1]   --> A_g                
     freq (  16-  16) =         99.1  [cm-1]   --> A_u                
     freq (  17-  17) =        107.0  [cm-1]   --> A_g                
     freq (  18-  18) =        108.5  [cm-1]   --> B_u                
     freq (  19-  19) =        109.0  [cm-1]   --> B_g                
     freq (  20-  20) =        111.0  [cm-1]   --> B_u                
     freq (  21-  21) =        112.4  [cm-1]   --> A_u                
     freq (  22-  22) =        112.9  [cm-1]   --> A_g                
     freq (  23-  23) =        115.4  [cm-1]   --> B_u                
     freq (  24-  24) =        119.5  [cm-1]   --> A_g                
     freq (  25-  25) =        125.2  [cm-1]   --> B_g                
     freq (  26-  26) =        126.1  [cm-1]   --> A_u                
     freq (  27-  27) =        129.9  [cm-1]   --> A_g                
     freq (  28-  28) =        130.3  [cm-1]   --> B_u                
     freq (  29-  29) =        136.6  [cm-1]   --> B_g                
     freq (  30-  30) =        137.0  [cm-1]   --> A_u                
     freq (  31-  31) =        139.4  [cm-1]   --> B_u                
     freq (  32-  32) =        140.3  [cm-1]   --> A_g                
     freq (  33-  33) =        142.5  [cm-1]   --> B_g                
     freq (  34-  34) =        143.8  [cm-1]   --> A_g                
     freq (  35-  35) =        144.4  [cm-1]   --> B_u                
     freq (  36-  36) =        146.6  [cm-1]   --> A_u                
     freq (  37-  37) =        151.7  [cm-1]   --> B_g                
     freq (  38-  38) =        152.3  [cm-1]   --> B_u                
     freq (  39-  39) =        153.1  [cm-1]   --> A_u                
     freq (  40-  40) =        154.3  [cm-1]   --> A_g                
     freq (  41-  41) =        156.9  [cm-1]   --> B_u                
     freq (  42-  42) =        158.8  [cm-1]   --> A_g                
     freq (  43-  43) =        170.6  [cm-1]   --> B_u                
     freq (  44-  44) =        170.9  [cm-1]   --> A_u                
     freq (  45-  45) =        171.2  [cm-1]   --> B_g                
     freq (  46-  46) =        171.4  [cm-1]   --> A_g                
     freq (  47-  47) =        172.3  [cm-1]   --> B_u                
     freq (  48-  48) =        195.2  [cm-1]   --> A_g                
     freq (  49-  49) =        198.4  [cm-1]   --> B_g                
     freq (  50-  50) =        198.5  [cm-1]   --> A_u                
     freq (  51-  51) =        215.1  [cm-1]   --> A_g                
     freq (  52-  52) =        215.6  [cm-1]   --> B_u                
     freq (  53-  53) =        223.4  [cm-1]   --> B_g                
     freq (  54-  54) =        224.1  [cm-1]   --> A_u                
     freq (  55-  55) =        238.5  [cm-1]   --> B_g                
     freq (  56-  56) =        240.8  [cm-1]   --> A_u                
     freq (  57-  57) =        249.2  [cm-1]   --> B_u                
     freq (  58-  58) =        254.3  [cm-1]   --> A_g                
     freq (  59-  59) =        256.7  [cm-1]   --> B_u                
     freq (  60-  60) =        262.4  [cm-1]   --> A_g                
     freq (  61-  61) =        267.1  [cm-1]   --> B_g                
     freq (  62-  62) =        268.8  [cm-1]   --> A_u                
     freq (  63-  63) =        278.4  [cm-1]   --> A_g                
     freq (  64-  64) =        279.0  [cm-1]   --> B_u                
     freq (  65-  65) =        285.1  [cm-1]   --> B_u                
     freq (  66-  66) =        290.0  [cm-1]   --> A_g                

     init_run     :      1.30s CPU     15.68s WALL (       3 calls)
     electrons    :    835.43s CPU    852.50s WALL (       3 calls)

     Called by init_run:
     wfcinit      :      0.00s CPU     13.69s WALL (       3 calls)
     potinit      :      0.38s CPU      0.97s WALL (       3 calls)
     hinit0       :      0.11s CPU      0.12s WALL (       3 calls)

     Called by electrons:
     c_bands      :    832.83s CPU    849.72s WALL (       3 calls)
     v_of_rho     :      0.46s CPU      0.51s WALL (       4 calls)

     Called by c_bands:
     init_us_2    :     47.20s CPU     54.00s WALL (   18492 calls)
     cegterg      :    718.36s CPU    730.13s WALL (     127 calls)

     Called by *egterg:
     cdiaghg      :    107.86s CPU    108.99s WALL (    2311 calls)
     h_psi        : 150449.35s CPU 153141.82s WALL ( 1088377 calls)
     g_psi        :      0.67s CPU      0.68s WALL (    2281 calls)

     Called by h_psi:
     h_psi:calbec :  11442.31s CPU  11695.25s WALL ( 1088377 calls)
     vloc_psi     : 128967.10s CPU 131234.17s WALL ( 1088377 calls)
     add_vuspsi   :   9071.92s CPU   9227.92s WALL ( 1088377 calls)

     General routines
     calbec       :  22219.69s CPU  22698.07s WALL ( 2179380 calls)
     fft          :    399.90s CPU    416.55s WALL (   43920 calls)
     ffts         :   2349.96s CPU   2375.77s WALL (   28160 calls)
     fftw         : 148832.05s CPU 151202.64s WALL (77819676 calls)
     davcio       :     23.69s CPU  25018.52s WALL (  120478 calls)

     Parallel routines

     PHONON       : 322505.28s CPU 358227.26s WALL

     INITIALIZATION: 
     phq_setup    :      1.04s CPU      1.51s WALL (       4 calls)
     phq_init     :     49.70s CPU     56.13s WALL (       4 calls)

     phq_init     :     49.70s CPU     56.13s WALL (       4 calls)
     init_vloc    :      0.09s CPU      0.10s WALL (       4 calls)
     init_us_1    :      0.00s CPU      0.00s WALL (       4 calls)
     init_us_2    :     47.20s CPU     54.00s WALL (   18492 calls)

     DYNAMICAL MATRIX:
     dynmat0      :     43.90s CPU     48.42s WALL (       4 calls)
     dynmat_us    :     23.38s CPU     23.83s WALL (       4 calls)
     d2ionq       :      0.82s CPU      0.83s WALL (       4 calls)
     phqscf       : 321584.52s CPU 357173.37s WALL (       4 calls)
     dynmatrix    :     15.36s CPU     18.10s WALL (       4 calls)

     phqscf       : 321584.52s CPU 357173.37s WALL (       4 calls)
     solve_linter : 320748.35s CPU 355718.70s WALL (     218 calls)
     sth_kernel   : 272557.16s CPU 296007.50s WALL (    3239 calls)
     h_prec       :  13089.87s CPU  13195.72s WALL (   16206 calls)
     apply_dpot_b :  15698.86s CPU  15899.58s WALL (   17127 calls)
     ortho        :   1272.17s CPU   1285.46s WALL (   18315 calls)
     cgsolve      : 176204.06s CPU 179436.61s WALL (   18315 calls)
     incdrhoscf   :  33351.29s CPU  33834.03s WALL (   18315 calls)
                                        0.00s GPU  (   18315 calls)
     dv_of_drho   :    609.10s CPU    642.07s WALL (    3846 calls)
     mix_pot      :   6913.08s CPU  13194.61s WALL (    3239 calls)
     ef_shift     :      9.73s CPU     11.78s WALL (     525 calls)
     ef_shift_wfc :      0.07s CPU     77.60s WALL (      44 calls)
     localdos     :    323.35s CPU    338.66s WALL (      44 calls)
     drhodv       :    831.26s CPU    948.53s WALL (     218 calls)
     psymdvscf    :   5200.46s CPU   5640.64s WALL (    3239 calls)

     dvqpsi_us    :   2875.79s CPU   2906.15s WALL (    1188 calls)
                                        0.00s GPU  (    1188 calls)
     dvqpsi_us_on :     76.09s CPU     77.32s WALL (    1188 calls)

     add_vuspsi   :   9071.92s CPU   9227.92s WALL ( 1088377 calls)


      General routines
     calbec       :  22219.69s CPU  22698.07s WALL ( 2179380 calls)
     fft          :    399.90s CPU    416.55s WALL (   43920 calls)
     ffts         :   2349.96s CPU   2375.77s WALL (   28160 calls)
     fftw         : 148832.05s CPU 151202.64s WALL (77819676 calls)
     davcio       :     23.69s CPU  25018.52s WALL (  120478 calls)
     write_rec    :     15.84s CPU   3926.38s WALL (    3457 calls)

      Additional routines
     ch_psi       : 171167.56s CPU 174282.37s WALL ( 1085939 calls)
     last         :  18925.63s CPU  19301.04s WALL ( 1085939 calls)
     Hesh         :    931.29s CPU    950.73s WALL ( 1085939 calls)
     ch_psi_all_k :  17985.32s CPU  18342.67s WALL ( 1085939 calls)
                                        0.00s GPU  ( 1085939 calls)
     ch_psi_calbe :  10295.70s CPU  10505.88s WALL ( 1085939 calls)
                                        0.00s GPU  ( 1085939 calls)
     h_psi_bgrp   : 150453.01s CPU 153144.32s WALL ( 1088377 calls)
     h_psi        : 150449.35s CPU 153141.82s WALL ( 1088377 calls)
     h_psi:pot    : 149496.07s CPU 152165.90s WALL ( 1088377 calls)
     h_psi:calbec :  11442.31s CPU  11695.25s WALL ( 1088377 calls)
     s_psi_bgrp   :   1533.25s CPU   1572.04s WALL ( 2190193 calls)


     PHONON       : 322505.28s CPU 358227.27s WALL


   This run was terminated on:  22:21:46   9Jul2025            

=------------------------------------------------------------------------------=
   JOB DONE.
=------------------------------------------------------------------------------=
