
     Program Q2R v.7.3.1 starts on  9Jul2025 at 22:22:10 

     This program is part of the open-source Quantum ESPRESSO suite
     for quantum simulation of materials; please cite
         "P. Giannozzi et al., J. Phys.:Condens. Matter 21 395502 (2009);
         "P. Giannozzi et al., J. Phys.:Condens. Matter 29 465901 (2017);
         "P. Giannozzi et al., J. Chem. Phys. 152 154105 (2020);
          URL http://www.quantum-espresso.org", 
     in publications or presentations arising from this work. More details at
     http://www.quantum-espresso.org/quote

     Parallel version (MPI & OpenMP), running on       1 processor cores
     Number of MPI processes:                 1
     Threads/MPI process:                     1

     MPI processes distributed on     1 nodes
     365992 MiB available memory on the printing compute node when the environment starts


  reading grid info from file dyn0    

  reading force constants from file dyn1
  Dielectric Tensor not found
  nqs=            1
 q=   0.00000000  0.00000000  0.00000000
  reading force constants from file dyn2
  nqs=            1
 q=   0.00000000  0.00000000 -0.27339996
  reading force constants from file dyn3
  nqs=            3
 q=   0.28867514 -0.50000000  0.09113332
 q=   0.57735027  0.00000000 -0.09113332
 q=  -0.28867514 -0.50000000 -0.09113332
  reading force constants from file dyn4
  nqs=            3
 q=   0.28867514 -0.50000000 -0.18226664
 q=   0.57735027  0.00000000  0.18226664
 q=  -0.28867514 -0.50000000  0.18226664

      q-space grid ok, #points =    8

      fft-check success (sum of imaginary terms < 10^-12)

     Q2R          :      0.10s CPU     11.52s WALL


   This run was terminated on:  22:22:21   9Jul2025            

=------------------------------------------------------------------------------=
   JOB DONE.
=------------------------------------------------------------------------------=
