
     Program PWSCF v.7.3.1 starts on  5Jul2025 at 18:45: 2 

     This program is part of the open-source Quantum ESPRESSO suite
     for quantum simulation of materials; please cite
         "P. Giannozzi et al., J. Phys.:Condens. Matter 21 395502 (2009);
         "P. Giannozzi et al., J. Phys.:Condens. Matter 29 465901 (2017);
         "P. Giannozzi et al., J. Chem. Phys. 152 154105 (2020);
          URL http://www.quantum-espresso.org", 
     in publications or presentations arising from this work. More details at
     http://www.quantum-espresso.org/quote

     Parallel version (MPI & OpenMP), running on     384 processor cores
     Number of MPI processes:               384
     Threads/MPI process:                     1

     MPI processes distributed on     2 nodes
     344733 MiB available memory on the printing compute node when the environment starts

     Waiting for input...
     Reading input from standard input
Warning: card &CELL ignored
Warning: card / ignored
Warning: card &FCP ignored
Warning: card / ignored
Warning: card &RISM ignored
Warning: card / ignored

     Current dimensions of program PWSCF are:
     Max number of different atomic species (ntypx) = 10
     Max number of k-points (npk) =  40000
     Max angular momentum in pseudopotentials (lmaxx) =  4

     IMPORTANT: XC functional enforced from input :
     Exchange-correlation= PBE
                           (   1   4   3   4   0   0   0)
     Any further DFT definition will be discarded
     Please, verify this is what you really want

     Message from routine setup:
     using ibrav=0 with symmetry is DISCOURAGED, use correct ibrav instead

     K-points division:     npool     =      12
     R & G space division:  proc/nbgrp/npool/nimage =      32
     Subspace diagonalization in iterative solution of the eigenvalue problem:
     a serial algorithm will be used


     Parallelization info
     --------------------
     sticks:   dense  smooth     PW     G-vecs:    dense   smooth      PW
     Min         154     154     41                16158    16158    2215
     Max         156     156     43                16169    16169    2221
     Sum        4957    4957   1333               517183   517183   70941

     Using Slab Decomposition



     bravais-lattice index     =            0
     lattice parameter (alat)  =      13.4224  a.u.
     unit-cell volume          =    3829.9744 (a.u.)^3
     number of atoms/cell      =           22
     number of atomic types    =            2
     number of electrons       =       190.00
     number of Kohn-Sham states=          114
     kinetic-energy cutoff     =     100.0000  Ry
     charge density cutoff     =     400.0000  Ry
     scf convergence threshold =      1.0E-16
     mixing beta               =       0.7000
     number of iterations used =            8  plain     mixing
     Exchange-correlation= PBE
                           (   1   4   3   4   0   0   0)

     celldm(1)=  13.422433  celldm(2)=   0.000000  celldm(3)=   0.000000
     celldm(4)=   0.000000  celldm(5)=   0.000000  celldm(6)=   0.000000

     crystal axes: (cart. coord. in units of alat)
               a(1) = (   0.866025   0.500000  -0.000000 )  
               a(2) = (  -0.866025   0.500000   0.000000 )  
               a(3) = (  -0.577350   0.000000   1.828822 )  

     reciprocal axes: (cart. coord. in units 2 pi/alat)
               b(1) = (  0.577350  1.000000  0.182267 )  
               b(2) = ( -0.577350  1.000000 -0.182267 )  
               b(3) = (  0.000000  0.000000  0.546800 )  


     PseudoPot. # 1 for Nb read from file:
     /scratch-shared/mroesner/Nb3X8_cDFPT/pp/Nb_ONCV_PBE-1.2.upf
     MD5 check sum: 2c750ac0b6910ff4cf0ab5f6c4124a64
     Pseudo is Norm-conserving, Zval = 13.0
     Generated using ONCVPSP code by D. R. Hamann
     Using radial grid of  602 points,  6 beta functions with: 
                l(1) =   0
                l(2) =   0
                l(3) =   1
                l(4) =   1
                l(5) =   2
                l(6) =   2

     PseudoPot. # 2 for Br read from file:
     /scratch-shared/mroesner/Nb3X8_cDFPT/pp/Br_ONCV_PBE-1.2.upf
     MD5 check sum: 5b50323dbf1c0ae0ed9e7f1e72c3f86c
     Pseudo is Norm-conserving, Zval =  7.0
     Generated using ONCVPSP code by D. R. Hamann
     Using radial grid of  602 points,  6 beta functions with: 
                l(1) =   0
                l(2) =   0
                l(3) =   1
                l(4) =   1
                l(5) =   2
                l(6) =   2

     atomic species   valence    mass     pseudopotential
     Nb               13.00    92.90637     Nb( 1.00)
     Br                7.00    79.90400     Br( 1.00)

     12 Sym. Ops., with inversion, found


                                    s                        frac. trans.

      isym =  1     identity                                     

 cryst.   s( 1) = (     1          0          0      )
                  (     0          1          0      )
                  (     0          0          1      )

 cart.    s( 1) = (  1.0000000 -0.0000000 -0.0000000 )
                  (  0.0000000  1.0000000 -0.0000000 )
                  (  0.0000000  0.0000000  1.0000000 )


      isym =  2     180 deg rotation - cart. axis [0,1,0]        

 cryst.   s( 2) = (     0          1          0      )
                  (     1          0          0      )
                  (     0          0         -1      )

 cart.    s( 2) = ( -1.0000000 -0.0000000  0.0000000 )
                  ( -0.0000000  1.0000000  0.0000000 )
                  (  0.0000000  0.0000000 -1.0000000 )


      isym =  3     120 deg rotation - cryst. axis [0,0,1]       

 cryst.   s( 3) = (     0          1          0      )
                  (    -1         -1          0      )
                  (     0         -1          1      )

 cart.    s( 3) = ( -0.5000000 -0.8660254 -0.0000000 )
                  (  0.8660254 -0.5000000  0.0000000 )
                  (  0.0000000  0.0000000  1.0000000 )


      isym =  4     120 deg rotation - cryst. axis [0,0,-1]      

 cryst.   s( 4) = (    -1         -1          0      )
                  (     1          0          0      )
                  (     1          0          1      )

 cart.    s( 4) = ( -0.5000000  0.8660254 -0.0000000 )
                  ( -0.8660254 -0.5000000 -0.0000000 )
                  (  0.0000000  0.0000000  1.0000000 )


      isym =  5     180 deg rotation - cryst. axis [1,-1,0]      

 cryst.   s( 5) = (    -1         -1          0      )
                  (     0          1          0      )
                  (     0          1         -1      )

 cart.    s( 5) = (  0.5000000 -0.8660254  0.0000000 )
                  ( -0.8660254 -0.5000000 -0.0000000 )
                  (  0.0000000  0.0000000 -1.0000000 )


      isym =  6     180 deg rotation - cryst. axis [2,1,0]       

 cryst.   s( 6) = (     1          0          0      )
                  (    -1         -1          0      )
                  (    -1          0         -1      )

 cart.    s( 6) = (  0.5000000  0.8660254  0.0000000 )
                  (  0.8660254 -0.5000000  0.0000000 )
                  (  0.0000000  0.0000000 -1.0000000 )


      isym =  7     inversion                                    

 cryst.   s( 7) = (    -1          0          0      )
                  (     0         -1          0      )
                  (     0          0         -1      )

 cart.    s( 7) = ( -1.0000000  0.0000000  0.0000000 )
                  ( -0.0000000 -1.0000000  0.0000000 )
                  (  0.0000000  0.0000000 -1.0000000 )


      isym =  8     inv. 180 deg rotation - cart. axis [0,1,0]   

 cryst.   s( 8) = (     0         -1          0      )
                  (    -1          0          0      )
                  (     0          0          1      )

 cart.    s( 8) = (  1.0000000  0.0000000 -0.0000000 )
                  (  0.0000000 -1.0000000 -0.0000000 )
                  (  0.0000000  0.0000000  1.0000000 )


      isym =  9     inv. 120 deg rotation - cryst. axis [0,0,1]  

 cryst.   s( 9) = (     0         -1          0      )
                  (     1          1          0      )
                  (     0          1         -1      )

 cart.    s( 9) = (  0.5000000  0.8660254  0.0000000 )
                  ( -0.8660254  0.5000000 -0.0000000 )
                  (  0.0000000  0.0000000 -1.0000000 )


      isym = 10     inv. 120 deg rotation - cryst. axis [0,0,-1] 

 cryst.   s(10) = (     1          1          0      )
                  (    -1          0          0      )
                  (    -1          0         -1      )

 cart.    s(10) = (  0.5000000 -0.8660254  0.0000000 )
                  (  0.8660254  0.5000000  0.0000000 )
                  (  0.0000000  0.0000000 -1.0000000 )


      isym = 11     inv. 180 deg rotation - cryst. axis [1,-1,0] 

 cryst.   s(11) = (     1          1          0      )
                  (     0         -1          0      )
                  (     0         -1          1      )

 cart.    s(11) = ( -0.5000000  0.8660254 -0.0000000 )
                  (  0.8660254  0.5000000  0.0000000 )
                  (  0.0000000  0.0000000  1.0000000 )


      isym = 12     inv. 180 deg rotation - cryst. axis [2,1,0]  

 cryst.   s(12) = (    -1          0          0      )
                  (     1          1          0      )
                  (     1          0          1      )

 cart.    s(12) = ( -0.5000000 -0.8660254 -0.0000000 )
                  ( -0.8660254  0.5000000 -0.0000000 )
                  (  0.0000000  0.0000000  1.0000000 )


   Cartesian axes

     site n.     atom                  positions (alat units)
         1        Nb     tau(   1) = (   0.2334968   0.0000000  -0.4622614  )
         2        Nb     tau(   2) = (  -0.1167484   0.2022141  -0.4622614  )
         3        Nb     tau(   3) = (  -0.1167484  -0.2022141  -0.4622614  )
         4        Nb     tau(   4) = (  -0.2334968  -0.0000000   0.4622614  )
         5        Nb     tau(   5) = (   0.1167484  -0.2022141   0.4622614  )
         6        Nb     tau(   6) = (   0.1167484   0.2022141   0.4622614  )
         7        Br     tau(   7) = (   0.0000000   0.0000000  -0.7404788  )
         8        Br     tau(   8) = (   0.8714264   0.0000000  -0.6649604  )
         9        Br     tau(   9) = (   0.4303122   0.2546774  -0.6649604  )
        10        Br     tau(  10) = (   0.4303122  -0.2546774  -0.6649604  )
        11        Br     tau(  11) = (   0.5773503  -0.0000000  -0.2626188  )
        12        Br     tau(  12) = (  -0.2880405   0.0000000  -0.2157816  )
        13        Br     tau(  13) = (   0.1440202  -0.2494504  -0.2157816  )
        14        Br     tau(  14) = (   0.1440202   0.2494504  -0.2157816  )
        15        Br     tau(  15) = (   0.2880405  -0.0000000   0.2157816  )
        16        Br     tau(  16) = (  -0.1440202   0.2494504   0.2157816  )
        17        Br     tau(  17) = (  -0.1440202  -0.2494504   0.2157816  )
        18        Br     tau(  18) = (  -0.5773503   0.0000000   0.2626188  )
        19        Br     tau(  19) = (  -0.8714264  -0.0000000   0.6649604  )
        20        Br     tau(  20) = (  -0.4303122  -0.2546774   0.6649604  )
        21        Br     tau(  21) = (  -0.4303122   0.2546774   0.6649604  )
        22        Br     tau(  22) = (  -0.0000000  -0.0000000   0.7404788  )

     --------------------------------------------
     DFT-D3 Dispersion Correction (no 3-body):
     --------------------------------------------
       Reference C6 values for interpolation: 

         atom   Coordination number   C6
         Br         0.000           334.26
         Br         0.997           338.48
         Nb         0.000          2950.50
         Nb         1.954          1161.16
         Nb         2.922           857.79

       Values used:

         atom   Coordination number  R0_AB[au]  C6      C8
         Nb         8.090            3.647    857.79 111659.18
         Nb         8.090            3.647    857.79 111659.18
         Nb         8.090            3.647    857.79 111659.18
         Nb         8.090            3.647    857.79 111659.18
         Nb         8.090            3.647    857.79 111659.18
         Nb         8.090            3.647    857.79 111659.18
         Br         3.694            3.181    338.47  21401.43
         Br         2.847            3.181    338.47  21401.43
         Br         2.847            3.181    338.47  21401.43
         Br         2.847            3.181    338.47  21401.43
         Br         3.694            3.181    338.47  21401.43
         Br         2.834            3.181    338.47  21401.43
         Br         2.834            3.181    338.47  21401.43
         Br         2.834            3.181    338.47  21401.43
         Br         2.834            3.181    338.47  21401.43
         Br         2.834            3.181    338.47  21401.43
         Br         2.834            3.181    338.47  21401.43
         Br         3.694            3.181    338.47  21401.43
         Br         2.847            3.181    338.47  21401.43
         Br         2.847            3.181    338.47  21401.43
         Br         2.847            3.181    338.47  21401.43
         Br         3.694            3.181    338.47  21401.43

         Molecular C6 ( Ry / a.u.^6 ) =    219379.98


   Crystallographic axes

     site n.     atom                  positions (cryst. coord.)
         1        Nb     tau(   1) = (  0.0505546 -0.0505546 -0.2527645  )
         2        Nb     tau(   2) = (  0.0505546  0.3538737 -0.2527645  )
         3        Nb     tau(   3) = ( -0.3538737 -0.0505546 -0.2527645  )
         4        Nb     tau(   4) = ( -0.0505546  0.0505546  0.2527645  )
         5        Nb     tau(   5) = ( -0.0505546 -0.3538737  0.2527645  )
         6        Nb     tau(   6) = (  0.3538737  0.0505546  0.2527645  )
         7        Br     tau(   7) = ( -0.1349646  0.1349646 -0.4048937  )
         8        Br     tau(   8) = (  0.3819182 -0.3819182 -0.3636003  )
         9        Br     tau(   9) = (  0.3819182  0.1274366 -0.3636003  )
        10        Br     tau(  10) = ( -0.1274366 -0.3819182 -0.3636003  )
        11        Br     tau(  11) = (  0.2854667 -0.2854667 -0.1436000  )
        12        Br     tau(  12) = ( -0.2056300  0.2056300 -0.1179894  )
        13        Br     tau(  13) = ( -0.2056300 -0.2932707 -0.1179894  )
        14        Br     tau(  14) = (  0.2932707  0.2056300 -0.1179894  )
        15        Br     tau(  15) = (  0.2056300 -0.2056300  0.1179894  )
        16        Br     tau(  16) = (  0.2056300  0.2932707  0.1179894  )
        17        Br     tau(  17) = ( -0.2932707 -0.2056300  0.1179894  )
        18        Br     tau(  18) = ( -0.2854667  0.2854667  0.1436000  )
        19        Br     tau(  19) = ( -0.3819182  0.3819182  0.3636003  )
        20        Br     tau(  20) = ( -0.3819182 -0.1274366  0.3636003  )
        21        Br     tau(  21) = (  0.1274366  0.3819182  0.3636003  )
        22        Br     tau(  22) = (  0.1349646 -0.1349646  0.4048937  )

     number of k points=    32  Marzari-Vanderbilt smearing, width (Ry)=  0.0037
                       cart. coord. in units 2pi/alat
        k(    1) = (   0.0000000   0.0000000   0.0000000), wk =   0.0092593
        k(    2) = (   0.0000000   0.0000000   0.0911333), wk =   0.0185185
        k(    3) = (   0.0000000   0.0000000   0.1822666), wk =   0.0185185
        k(    4) = (   0.0000000   0.0000000  -0.2734000), wk =   0.0092593
        k(    5) = (  -0.0962250   0.1666667  -0.0303778), wk =   0.0555556
        k(    6) = (  -0.0962250   0.1666667   0.0607555), wk =   0.0555556
        k(    7) = (  -0.0962250   0.1666667   0.1518889), wk =   0.0555556
        k(    8) = (  -0.0962250   0.1666667  -0.3037777), wk =   0.0555556
        k(    9) = (  -0.0962250   0.1666667  -0.2126444), wk =   0.0555556
        k(   10) = (  -0.0962250   0.1666667  -0.1215111), wk =   0.0555556
        k(   11) = (  -0.1924501   0.3333333  -0.0607555), wk =   0.0555556
        k(   12) = (  -0.1924501   0.3333333   0.0303778), wk =   0.0555556
        k(   13) = (  -0.1924501   0.3333333   0.1215111), wk =   0.0555556
        k(   14) = (  -0.1924501   0.3333333  -0.3341555), wk =   0.0555556
        k(   15) = (  -0.1924501   0.3333333  -0.2430222), wk =   0.0555556
        k(   16) = (  -0.1924501   0.3333333  -0.1518889), wk =   0.0555556
        k(   17) = (   0.2886751  -0.5000000   0.0911333), wk =   0.0277778
        k(   18) = (   0.2886751  -0.5000000   0.1822666), wk =   0.0555556
        k(   19) = (   0.2886751  -0.5000000   0.2734000), wk =   0.0555556
        k(   20) = (   0.2886751  -0.5000000  -0.1822666), wk =   0.0277778
        k(   21) = (  -0.0000000   0.3333333  -0.0000000), wk =   0.0555556
        k(   22) = (  -0.0000000   0.3333333   0.0911333), wk =   0.1111111
        k(   23) = (  -0.0000000   0.3333333   0.1822666), wk =   0.1111111
        k(   24) = (  -0.0000000   0.3333333  -0.2734000), wk =   0.0555556
        k(   25) = (  -0.0962250   0.5000000  -0.0303778), wk =   0.1111111
        k(   26) = (  -0.0962250   0.5000000   0.0607555), wk =   0.1111111
        k(   27) = (  -0.0962250   0.5000000   0.1518889), wk =   0.1111111
        k(   28) = (  -0.0962250   0.5000000  -0.3037777), wk =   0.1111111
        k(   29) = (  -0.0962250   0.5000000  -0.2126444), wk =   0.1111111
        k(   30) = (  -0.0962250   0.5000000  -0.1215111), wk =   0.1111111
        k(   31) = (  -0.0000000   0.6666667  -0.0000000), wk =   0.0555556
        k(   32) = (  -0.0000000   0.6666667   0.0911333), wk =   0.0555556

                       cryst. coord.
        k(    1) = (   0.0000000   0.0000000   0.0000000), wk =   0.0092593
        k(    2) = (   0.0000000   0.0000000   0.1666667), wk =   0.0185185
        k(    3) = (   0.0000000   0.0000000   0.3333333), wk =   0.0185185
        k(    4) = (   0.0000000   0.0000000  -0.5000000), wk =   0.0092593
        k(    5) = (  -0.0000000   0.1666667   0.0000000), wk =   0.0555556
        k(    6) = (  -0.0000000   0.1666667   0.1666667), wk =   0.0555556
        k(    7) = (  -0.0000000   0.1666667   0.3333333), wk =   0.0555556
        k(    8) = (  -0.0000000   0.1666667  -0.5000000), wk =   0.0555556
        k(    9) = (  -0.0000000   0.1666667  -0.3333333), wk =   0.0555556
        k(   10) = (  -0.0000000   0.1666667  -0.1666667), wk =   0.0555556
        k(   11) = (  -0.0000000   0.3333333   0.0000000), wk =   0.0555556
        k(   12) = (  -0.0000000   0.3333333   0.1666667), wk =   0.0555556
        k(   13) = (  -0.0000000   0.3333333   0.3333333), wk =   0.0555556
        k(   14) = (  -0.0000000   0.3333333  -0.5000000), wk =   0.0555556
        k(   15) = (  -0.0000000   0.3333333  -0.3333333), wk =   0.0555556
        k(   16) = (  -0.0000000   0.3333333  -0.1666667), wk =   0.0555556
        k(   17) = (   0.0000000  -0.5000000  -0.0000000), wk =   0.0277778
        k(   18) = (   0.0000000  -0.5000000   0.1666667), wk =   0.0555556
        k(   19) = (   0.0000000  -0.5000000   0.3333333), wk =   0.0555556
        k(   20) = (   0.0000000  -0.5000000  -0.5000000), wk =   0.0277778
        k(   21) = (   0.1666667   0.1666667  -0.0000000), wk =   0.0555556
        k(   22) = (   0.1666667   0.1666667   0.1666667), wk =   0.1111111
        k(   23) = (   0.1666667   0.1666667   0.3333333), wk =   0.1111111
        k(   24) = (   0.1666667   0.1666667  -0.5000000), wk =   0.0555556
        k(   25) = (   0.1666667   0.3333333   0.0000000), wk =   0.1111111
        k(   26) = (   0.1666667   0.3333333   0.1666667), wk =   0.1111111
        k(   27) = (   0.1666667   0.3333333   0.3333333), wk =   0.1111111
        k(   28) = (   0.1666667   0.3333333  -0.5000000), wk =   0.1111111
        k(   29) = (   0.1666667   0.3333333  -0.3333333), wk =   0.1111111
        k(   30) = (   0.1666667   0.3333333  -0.1666667), wk =   0.1111111
        k(   31) = (   0.3333333   0.3333333  -0.0000000), wk =   0.0555556
        k(   32) = (   0.3333333   0.3333333   0.1666667), wk =   0.0555556

     Dense  grid:   517183 G-vectors     FFT dimensions: ( 180, 180, 180)

     Dynamical RAM for                 wfc:       3.52 MB

     Dynamical RAM for     wfc (w. buffer):      14.06 MB

     Dynamical RAM for           str. fact:       0.49 MB

     Dynamical RAM for           local pot:       0.00 MB

     Dynamical RAM for          nlocal pot:      12.21 MB

     Dynamical RAM for                qrad:       3.21 MB

     Dynamical RAM for          rho,v,vnew:       5.19 MB

     Dynamical RAM for               rhoin:       1.73 MB

     Dynamical RAM for            rho*nmix:       3.94 MB

     Dynamical RAM for           G-vectors:       1.05 MB

     Dynamical RAM for          h,s,v(r/c):       2.38 MB

     Dynamical RAM for          <psi|beta>:       0.69 MB

     Dynamical RAM for                 psi:       7.03 MB

     Dynamical RAM for                hpsi:       7.03 MB

     Dynamical RAM for      wfcinit/wfcrot:       7.33 MB

     Estimated static dynamical RAM per process >      46.10 MB

     Estimated max dynamical RAM per process >      67.18 MB

     Estimated total dynamical RAM >      23.83 GB

     Initial potential from superposition of free atoms

     starting charge     189.1494, renormalised to     190.0000
     Starting wfcs are random

     total cpu time spent up to now is        3.4 secs

     per-process dynamical memory:   183.5 Mb

     Self-consistent Calculation

     iteration #  1     ecut=   100.00 Ry     beta= 0.70
     Davidson diagonalization with overlap

---- Real-time Memory Report at c_bands before calling an iterative solver
           272 MiB given to the printing process from OS
           179 MiB allocation reported by mallinfo(arena+hblkhd)
        331461 MiB available memory on the node where the printing process lives
------------------
     c_bands:  2 eigenvalues not converged
     ethr =  1.00E-02,  avg # of iterations = 18.4

     Threshold (ethr) on eigenvalues was too large:
     Diagonalizing with lowered threshold

     Davidson diagonalization with overlap

---- Real-time Memory Report at c_bands before calling an iterative solver
           295 MiB given to the printing process from OS
           185 MiB allocation reported by mallinfo(arena+hblkhd)
        330216 MiB available memory on the node where the printing process lives
------------------
     c_bands:  1 eigenvalues not converged
     ethr =  4.02E-04,  avg # of iterations = 17.6

     total cpu time spent up to now is       32.8 secs

     WARNING: integrated charge=   190.00394894, expected=   190.00000000

     total energy              =   -1118.01401501 Ry
     estimated scf accuracy    <       0.64350858 Ry

     iteration #  2     ecut=   100.00 Ry     beta= 0.70
     Davidson diagonalization with overlap

---- Real-time Memory Report at c_bands before calling an iterative solver
           309 MiB given to the printing process from OS
           189 MiB allocation reported by mallinfo(arena+hblkhd)
        329732 MiB available memory on the node where the printing process lives
------------------
     ethr =  3.39E-04,  avg # of iterations =  4.1

     total cpu time spent up to now is       40.2 secs

     WARNING: integrated charge=   190.00268097, expected=   190.00000000

     total energy              =   -1118.06574691 Ry
     estimated scf accuracy    <       0.84806159 Ry

     iteration #  3     ecut=   100.00 Ry     beta= 0.70
     Davidson diagonalization with overlap

---- Real-time Memory Report at c_bands before calling an iterative solver
           309 MiB given to the printing process from OS
           190 MiB allocation reported by mallinfo(arena+hblkhd)
        329570 MiB available memory on the node where the printing process lives
------------------
     ethr =  3.39E-04,  avg # of iterations =  5.9

     total cpu time spent up to now is       47.7 secs

     WARNING: integrated charge=   190.00280559, expected=   190.00000000

     total energy              =   -1118.22754696 Ry
     estimated scf accuracy    <       0.26578773 Ry

     iteration #  4     ecut=   100.00 Ry     beta= 0.70
     Davidson diagonalization with overlap

---- Real-time Memory Report at c_bands before calling an iterative solver
           311 MiB given to the printing process from OS
           190 MiB allocation reported by mallinfo(arena+hblkhd)
        329516 MiB available memory on the node where the printing process lives
------------------
     ethr =  1.40E-04,  avg # of iterations =  5.4

     total cpu time spent up to now is       54.3 secs

     WARNING: integrated charge=   190.00191286, expected=   190.00000000

     total energy              =   -1118.27825271 Ry
     estimated scf accuracy    <       0.04163003 Ry

     iteration #  5     ecut=   100.00 Ry     beta= 0.70
     Davidson diagonalization with overlap

---- Real-time Memory Report at c_bands before calling an iterative solver
           315 MiB given to the printing process from OS
           191 MiB allocation reported by mallinfo(arena+hblkhd)
        329537 MiB available memory on the node where the printing process lives
------------------
     c_bands:  3 eigenvalues not converged
     ethr =  2.19E-05,  avg # of iterations =  9.4

     total cpu time spent up to now is       62.6 secs

     WARNING: integrated charge=   190.00082025, expected=   190.00000000

     total energy              =   -1118.28929968 Ry
     estimated scf accuracy    <       0.00969278 Ry

     iteration #  6     ecut=   100.00 Ry     beta= 0.70
     Davidson diagonalization with overlap

---- Real-time Memory Report at c_bands before calling an iterative solver
           315 MiB given to the printing process from OS
           191 MiB allocation reported by mallinfo(arena+hblkhd)
        329446 MiB available memory on the node where the printing process lives
------------------
     ethr =  5.10E-06,  avg # of iterations = 12.5

     total cpu time spent up to now is       71.3 secs

     WARNING: integrated charge=   190.00026811, expected=   190.00000000

     total energy              =   -1118.29188002 Ry
     estimated scf accuracy    <       0.00055820 Ry

     iteration #  7     ecut=   100.00 Ry     beta= 0.70
     Davidson diagonalization with overlap

---- Real-time Memory Report at c_bands before calling an iterative solver
           315 MiB given to the printing process from OS
           192 MiB allocation reported by mallinfo(arena+hblkhd)
        329420 MiB available memory on the node where the printing process lives
------------------
     ethr =  2.94E-07,  avg # of iterations = 14.1

     total cpu time spent up to now is       83.8 secs

     WARNING: integrated charge=   190.00007311, expected=   190.00000000

     total energy              =   -1118.29255250 Ry
     estimated scf accuracy    <       0.00006828 Ry

     iteration #  8     ecut=   100.00 Ry     beta= 0.70
     Davidson diagonalization with overlap

---- Real-time Memory Report at c_bands before calling an iterative solver
           315 MiB given to the printing process from OS
           192 MiB allocation reported by mallinfo(arena+hblkhd)
        329380 MiB available memory on the node where the printing process lives
------------------
     ethr =  3.59E-08,  avg # of iterations = 14.2

     total cpu time spent up to now is       93.7 secs

     total energy              =   -1118.29259827 Ry
     estimated scf accuracy    <       0.00000977 Ry

     iteration #  9     ecut=   100.00 Ry     beta= 0.70
     Davidson diagonalization with overlap

---- Real-time Memory Report at c_bands before calling an iterative solver
           317 MiB given to the printing process from OS
           193 MiB allocation reported by mallinfo(arena+hblkhd)
        329388 MiB available memory on the node where the printing process lives
------------------
     ethr =  5.14E-09,  avg # of iterations = 13.2

     total cpu time spent up to now is      103.8 secs

     total energy              =   -1118.29260597 Ry
     estimated scf accuracy    <       0.00000195 Ry

     iteration # 10     ecut=   100.00 Ry     beta= 0.70
     Davidson diagonalization with overlap

---- Real-time Memory Report at c_bands before calling an iterative solver
           317 MiB given to the printing process from OS
           193 MiB allocation reported by mallinfo(arena+hblkhd)
        329285 MiB available memory on the node where the printing process lives
------------------
     c_bands:  1 eigenvalues not converged
     ethr =  1.03E-09,  avg # of iterations = 11.6

     total cpu time spent up to now is      111.8 secs

     total energy              =   -1118.29260655 Ry
     estimated scf accuracy    <       0.00000012 Ry

     iteration # 11     ecut=   100.00 Ry     beta= 0.70
     Davidson diagonalization with overlap

---- Real-time Memory Report at c_bands before calling an iterative solver
           317 MiB given to the printing process from OS
           193 MiB allocation reported by mallinfo(arena+hblkhd)
        329270 MiB available memory on the node where the printing process lives
------------------
     c_bands:  1 eigenvalues not converged
     ethr =  6.22E-11,  avg # of iterations = 19.1

     total cpu time spent up to now is      124.8 secs

     total energy              =   -1118.29260665 Ry
     estimated scf accuracy    <       0.00000002 Ry

     iteration # 12     ecut=   100.00 Ry     beta= 0.70
     Davidson diagonalization with overlap

---- Real-time Memory Report at c_bands before calling an iterative solver
           317 MiB given to the printing process from OS
           193 MiB allocation reported by mallinfo(arena+hblkhd)
        329248 MiB available memory on the node where the printing process lives
------------------
     ethr =  1.21E-11,  avg # of iterations = 12.5

     total cpu time spent up to now is      133.7 secs

     total energy              =   -1118.29260666 Ry
     estimated scf accuracy    <          2.2E-09 Ry

     iteration # 13     ecut=   100.00 Ry     beta= 0.70
     Davidson diagonalization with overlap

---- Real-time Memory Report at c_bands before calling an iterative solver
           317 MiB given to the printing process from OS
           193 MiB allocation reported by mallinfo(arena+hblkhd)
        329306 MiB available memory on the node where the printing process lives
------------------
     c_bands:  2 eigenvalues not converged
     c_bands:  3 eigenvalues not converged
     ethr =  1.18E-12,  avg # of iterations = 17.4

     total cpu time spent up to now is      143.7 secs

     total energy              =   -1118.29260666 Ry
     estimated scf accuracy    <          2.4E-10 Ry

     iteration # 14     ecut=   100.00 Ry     beta= 0.70
     Davidson diagonalization with overlap

---- Real-time Memory Report at c_bands before calling an iterative solver
           317 MiB given to the printing process from OS
           193 MiB allocation reported by mallinfo(arena+hblkhd)
        329266 MiB available memory on the node where the printing process lives
------------------
     c_bands:  2 eigenvalues not converged
     c_bands:  3 eigenvalues not converged
     ethr =  1.27E-13,  avg # of iterations = 15.2

     total cpu time spent up to now is      153.5 secs

     total energy              =   -1118.29260666 Ry
     estimated scf accuracy    <          4.9E-11 Ry

     iteration # 15     ecut=   100.00 Ry     beta= 0.70
     Davidson diagonalization with overlap

---- Real-time Memory Report at c_bands before calling an iterative solver
           317 MiB given to the printing process from OS
           193 MiB allocation reported by mallinfo(arena+hblkhd)
        329277 MiB available memory on the node where the printing process lives
------------------
     c_bands:  1 eigenvalues not converged
     ethr =  1.00E-13,  avg # of iterations =  7.4

     total cpu time spent up to now is      160.2 secs

     total energy              =   -1118.29260666 Ry
     estimated scf accuracy    <          4.5E-12 Ry

     iteration # 16     ecut=   100.00 Ry     beta= 0.70
     Davidson diagonalization with overlap

---- Real-time Memory Report at c_bands before calling an iterative solver
           317 MiB given to the printing process from OS
           193 MiB allocation reported by mallinfo(arena+hblkhd)
        329283 MiB available memory on the node where the printing process lives
------------------
     ethr =  1.00E-13,  avg # of iterations =  5.0

     total cpu time spent up to now is      166.1 secs

     total energy              =   -1118.29260666 Ry
     estimated scf accuracy    <          4.4E-13 Ry

     iteration # 17     ecut=   100.00 Ry     beta= 0.70
     Davidson diagonalization with overlap

---- Real-time Memory Report at c_bands before calling an iterative solver
           317 MiB given to the printing process from OS
           193 MiB allocation reported by mallinfo(arena+hblkhd)
        329309 MiB available memory on the node where the printing process lives
------------------
     ethr =  1.00E-13,  avg # of iterations =  3.9

     total cpu time spent up to now is      172.0 secs

     total energy              =   -1118.29260666 Ry
     estimated scf accuracy    <          8.8E-14 Ry

     iteration # 18     ecut=   100.00 Ry     beta= 0.70
     Davidson diagonalization with overlap

---- Real-time Memory Report at c_bands before calling an iterative solver
           317 MiB given to the printing process from OS
           193 MiB allocation reported by mallinfo(arena+hblkhd)
        329279 MiB available memory on the node where the printing process lives
------------------
     ethr =  1.00E-13,  avg # of iterations =  3.4

     total cpu time spent up to now is      178.0 secs

     total energy              =   -1118.29260666 Ry
     estimated scf accuracy    <          7.3E-14 Ry

     iteration # 19     ecut=   100.00 Ry     beta= 0.70
     Davidson diagonalization with overlap

---- Real-time Memory Report at c_bands before calling an iterative solver
           317 MiB given to the printing process from OS
           193 MiB allocation reported by mallinfo(arena+hblkhd)
        329281 MiB available memory on the node where the printing process lives
------------------
     ethr =  1.00E-13,  avg # of iterations =  2.8

     total cpu time spent up to now is      183.9 secs

     total energy              =   -1118.29260666 Ry
     estimated scf accuracy    <          5.8E-14 Ry

     iteration # 20     ecut=   100.00 Ry     beta= 0.70
     Davidson diagonalization with overlap

---- Real-time Memory Report at c_bands before calling an iterative solver
           317 MiB given to the printing process from OS
           193 MiB allocation reported by mallinfo(arena+hblkhd)
        329247 MiB available memory on the node where the printing process lives
------------------
     ethr =  1.00E-13,  avg # of iterations =  2.8

     total cpu time spent up to now is      190.2 secs

     total energy              =   -1118.29260666 Ry
     estimated scf accuracy    <          3.2E-14 Ry

     iteration # 21     ecut=   100.00 Ry     beta= 0.70
     Davidson diagonalization with overlap

---- Real-time Memory Report at c_bands before calling an iterative solver
           317 MiB given to the printing process from OS
           193 MiB allocation reported by mallinfo(arena+hblkhd)
        329266 MiB available memory on the node where the printing process lives
------------------
     ethr =  1.00E-13,  avg # of iterations =  2.8

     total cpu time spent up to now is      196.1 secs

     total energy              =   -1118.29260666 Ry
     estimated scf accuracy    <          8.0E-15 Ry

     iteration # 22     ecut=   100.00 Ry     beta= 0.70
     Davidson diagonalization with overlap

---- Real-time Memory Report at c_bands before calling an iterative solver
           317 MiB given to the printing process from OS
           193 MiB allocation reported by mallinfo(arena+hblkhd)
        329262 MiB available memory on the node where the printing process lives
------------------
     ethr =  1.00E-13,  avg # of iterations =  2.8

     total cpu time spent up to now is      202.2 secs

     total energy              =   -1118.29260666 Ry
     estimated scf accuracy    <          1.7E-15 Ry

     iteration # 23     ecut=   100.00 Ry     beta= 0.70
     Davidson diagonalization with overlap

---- Real-time Memory Report at c_bands before calling an iterative solver
           317 MiB given to the printing process from OS
           193 MiB allocation reported by mallinfo(arena+hblkhd)
        329224 MiB available memory on the node where the printing process lives
------------------
     ethr =  1.00E-13,  avg # of iterations =  2.8

     total cpu time spent up to now is      208.1 secs

     total energy              =   -1118.29260666 Ry
     estimated scf accuracy    <          1.1E-15 Ry

     iteration # 24     ecut=   100.00 Ry     beta= 0.70
     Davidson diagonalization with overlap

---- Real-time Memory Report at c_bands before calling an iterative solver
           317 MiB given to the printing process from OS
           193 MiB allocation reported by mallinfo(arena+hblkhd)
        329237 MiB available memory on the node where the printing process lives
------------------
     ethr =  1.00E-13,  avg # of iterations =  2.8

     total cpu time spent up to now is      214.0 secs

     total energy              =   -1118.29260666 Ry
     estimated scf accuracy    <          1.1E-15 Ry

     iteration # 25     ecut=   100.00 Ry     beta= 0.70
     Davidson diagonalization with overlap

---- Real-time Memory Report at c_bands before calling an iterative solver
           317 MiB given to the printing process from OS
           193 MiB allocation reported by mallinfo(arena+hblkhd)
        329252 MiB available memory on the node where the printing process lives
------------------
     ethr =  1.00E-13,  avg # of iterations =  2.8

     total cpu time spent up to now is      220.4 secs

     total energy              =   -1118.29260666 Ry
     estimated scf accuracy    <          2.6E-15 Ry

     iteration # 26     ecut=   100.00 Ry     beta= 0.70
     Davidson diagonalization with overlap

---- Real-time Memory Report at c_bands before calling an iterative solver
           317 MiB given to the printing process from OS
           193 MiB allocation reported by mallinfo(arena+hblkhd)
        329191 MiB available memory on the node where the printing process lives
------------------
     ethr =  1.00E-13,  avg # of iterations =  2.8

     total cpu time spent up to now is      226.3 secs

     total energy              =   -1118.29260666 Ry
     estimated scf accuracy    <          3.7E-15 Ry

     iteration # 27     ecut=   100.00 Ry     beta= 0.70
     Davidson diagonalization with overlap

---- Real-time Memory Report at c_bands before calling an iterative solver
           317 MiB given to the printing process from OS
           193 MiB allocation reported by mallinfo(arena+hblkhd)
        329201 MiB available memory on the node where the printing process lives
------------------
     ethr =  1.00E-13,  avg # of iterations =  2.8

     total cpu time spent up to now is      232.2 secs

     total energy              =   -1118.29260666 Ry
     estimated scf accuracy    <          6.2E-15 Ry

     iteration # 28     ecut=   100.00 Ry     beta= 0.70
     Davidson diagonalization with overlap

---- Real-time Memory Report at c_bands before calling an iterative solver
           317 MiB given to the printing process from OS
           193 MiB allocation reported by mallinfo(arena+hblkhd)
        329194 MiB available memory on the node where the printing process lives
------------------
     ethr =  1.00E-13,  avg # of iterations =  2.8

     total cpu time spent up to now is      238.0 secs

     total energy              =   -1118.29260666 Ry
     estimated scf accuracy    <          7.9E-15 Ry

     iteration # 29     ecut=   100.00 Ry     beta= 0.70
     Davidson diagonalization with overlap

---- Real-time Memory Report at c_bands before calling an iterative solver
           317 MiB given to the printing process from OS
           193 MiB allocation reported by mallinfo(arena+hblkhd)
        329215 MiB available memory on the node where the printing process lives
------------------
     ethr =  1.00E-13,  avg # of iterations =  2.8

     total cpu time spent up to now is      243.9 secs

     total energy              =   -1118.29260666 Ry
     estimated scf accuracy    <          1.2E-14 Ry

     iteration # 30     ecut=   100.00 Ry     beta= 0.70
     Davidson diagonalization with overlap

---- Real-time Memory Report at c_bands before calling an iterative solver
           317 MiB given to the printing process from OS
           193 MiB allocation reported by mallinfo(arena+hblkhd)
        329198 MiB available memory on the node where the printing process lives
------------------
     ethr =  1.00E-13,  avg # of iterations =  2.2

     total cpu time spent up to now is      249.6 secs

     total energy              =   -1118.29260666 Ry
     estimated scf accuracy    <          5.4E-15 Ry

     iteration # 31     ecut=   100.00 Ry     beta= 0.70
     Davidson diagonalization with overlap

---- Real-time Memory Report at c_bands before calling an iterative solver
           317 MiB given to the printing process from OS
           193 MiB allocation reported by mallinfo(arena+hblkhd)
        329211 MiB available memory on the node where the printing process lives
------------------
     ethr =  1.00E-13,  avg # of iterations =  2.2

     total cpu time spent up to now is      255.0 secs

     total energy              =   -1118.29260666 Ry
     estimated scf accuracy    <          8.3E-15 Ry

     iteration # 32     ecut=   100.00 Ry     beta= 0.70
     Davidson diagonalization with overlap

---- Real-time Memory Report at c_bands before calling an iterative solver
           317 MiB given to the printing process from OS
           193 MiB allocation reported by mallinfo(arena+hblkhd)
        329204 MiB available memory on the node where the printing process lives
------------------
     ethr =  1.00E-13,  avg # of iterations =  2.2

     total cpu time spent up to now is      260.3 secs

     total energy              =   -1118.29260666 Ry
     estimated scf accuracy    <          4.5E-15 Ry

     iteration # 33     ecut=   100.00 Ry     beta= 0.70
     Davidson diagonalization with overlap

---- Real-time Memory Report at c_bands before calling an iterative solver
           317 MiB given to the printing process from OS
           193 MiB allocation reported by mallinfo(arena+hblkhd)
        329205 MiB available memory on the node where the printing process lives
------------------
     ethr =  1.00E-13,  avg # of iterations =  2.2

     total cpu time spent up to now is      265.7 secs

     total energy              =   -1118.29260666 Ry
     estimated scf accuracy    <          3.0E-15 Ry

     iteration # 34     ecut=   100.00 Ry     beta= 0.70
     Davidson diagonalization with overlap

---- Real-time Memory Report at c_bands before calling an iterative solver
           317 MiB given to the printing process from OS
           193 MiB allocation reported by mallinfo(arena+hblkhd)
        329200 MiB available memory on the node where the printing process lives
------------------
     ethr =  1.00E-13,  avg # of iterations =  2.2

     total cpu time spent up to now is      271.0 secs

     total energy              =   -1118.29260666 Ry
     estimated scf accuracy    <          1.9E-15 Ry

     iteration # 35     ecut=   100.00 Ry     beta= 0.70
     Davidson diagonalization with overlap

---- Real-time Memory Report at c_bands before calling an iterative solver
           317 MiB given to the printing process from OS
           193 MiB allocation reported by mallinfo(arena+hblkhd)
        329212 MiB available memory on the node where the printing process lives
------------------
     ethr =  1.00E-13,  avg # of iterations =  2.2

     total cpu time spent up to now is      276.4 secs

     total energy              =   -1118.29260666 Ry
     estimated scf accuracy    <          8.0E-16 Ry

     iteration # 36     ecut=   100.00 Ry     beta= 0.70
     Davidson diagonalization with overlap

---- Real-time Memory Report at c_bands before calling an iterative solver
           317 MiB given to the printing process from OS
           193 MiB allocation reported by mallinfo(arena+hblkhd)
        329195 MiB available memory on the node where the printing process lives
------------------
     ethr =  1.00E-13,  avg # of iterations =  2.2

     total cpu time spent up to now is      282.1 secs

     total energy              =   -1118.29260666 Ry
     estimated scf accuracy    <          5.1E-16 Ry

     iteration # 37     ecut=   100.00 Ry     beta= 0.70
     Davidson diagonalization with overlap

---- Real-time Memory Report at c_bands before calling an iterative solver
           317 MiB given to the printing process from OS
           193 MiB allocation reported by mallinfo(arena+hblkhd)
        329211 MiB available memory on the node where the printing process lives
------------------
     ethr =  1.00E-13,  avg # of iterations =  2.2

     total cpu time spent up to now is      287.3 secs

     End of self-consistent calculation

          k = 0.0000 0.0000 0.0000 ( 64585 PWs)   bands (ev):

   -48.1064 -48.1064 -48.0303 -48.0303 -48.0303 -48.0303 -24.4654 -24.4654
   -24.2972 -24.2972 -24.2972 -24.2972 -24.2914 -24.2913 -24.1958 -24.1958
   -24.1958 -24.1958 -23.9847 -23.9847 -23.8356 -23.8356 -23.8356 -23.8356
    -9.2960  -9.1936  -8.8544  -8.7011  -8.2586  -8.2586  -8.2112  -8.1918
    -8.1696  -8.1696  -7.9798  -7.9396  -7.6335  -7.6335  -7.5960  -7.5960
     1.1360   1.1360   1.2462   1.2462   1.2855   1.5561   1.6309   1.7896
     1.9371   1.9371   2.1349   2.1549   2.1549   2.3792   2.4558   2.5735
     2.6964   2.6964   3.0073   3.0073   3.4028   3.5337   3.6245   3.6245
     3.7449   3.7449   3.8764   3.9537   3.9537   3.9909   3.9909   4.0302
     4.0831   4.1474   4.1474   4.2621   4.4285   4.4635   4.4635   5.0304
     5.0304   5.1078   5.1078   5.1131   5.7215   5.7215   5.7463   5.7463
     6.0683   6.2184   6.6818   6.6818   6.7529   6.7529   7.6149   7.9838
     8.6276   8.6276   8.6397   8.6397   9.1924   9.4202   9.4342   9.4342
     9.5522   9.5522   9.8115   9.8980   9.8980   9.9109   9.9109   9.9252
    10.0646  10.0646

     occupation numbers 
     1.0000   1.0000   1.0000   1.0000   1.0000   1.0000   1.0000   1.0000
     1.0000   1.0000   1.0000   1.0000   1.0000   1.0000   1.0000   1.0000
     1.0000   1.0000   1.0000   1.0000   1.0000   1.0000   1.0000   1.0000
     1.0000   1.0000   1.0000   1.0000   1.0000   1.0000   1.0000   1.0000
     1.0000   1.0000   1.0000   1.0000   1.0000   1.0000   1.0000   1.0000
     1.0000   1.0000   1.0000   1.0000   1.0000   1.0000   1.0000   1.0000
     1.0000   1.0000   1.0000   1.0000   1.0000   1.0000   1.0000   1.0000
     1.0000   1.0000   1.0000   1.0000   1.0000   1.0000   1.0000   1.0000
     1.0000   1.0000   1.0000   1.0000   1.0000   1.0000   1.0000   1.0000
     1.0000   1.0000   1.0000   1.0000   1.0000   1.0000   1.0000   1.0000
     1.0000   1.0000   1.0000   1.0000   1.0000   1.0000   1.0000   1.0000
     1.0000   1.0000   1.0000   1.0000   1.0000   1.0000   1.0003   0.0000
     0.0000   0.0000   0.0000   0.0000   0.0000   0.0000   0.0000   0.0000
     0.0000   0.0000   0.0000   0.0000   0.0000   0.0000   0.0000   0.0000
     0.0000   0.0000

          k = 0.0000 0.0000 0.0911 ( 64653 PWs)   bands (ev):

   -48.1064 -48.1064 -48.0303 -48.0303 -48.0303 -48.0303 -24.4654 -24.4654
   -24.2972 -24.2972 -24.2972 -24.2972 -24.2914 -24.2913 -24.1958 -24.1958
   -24.1958 -24.1958 -23.9847 -23.9847 -23.8356 -23.8356 -23.8356 -23.8356
    -9.2923  -9.1980  -8.8581  -8.6957  -8.2586  -8.2586  -8.2110  -8.1926
    -8.1697  -8.1697  -7.9774  -7.9425  -7.6332  -7.6332  -7.5962  -7.5962
     1.1392   1.1392   1.2384   1.2384   1.3092   1.5371   1.6452   1.8030
     1.9499   1.9499   2.0681   2.1570   2.1570   2.2896   2.5393   2.6173
     2.6868   2.6868   3.0038   3.0038   3.4077   3.5265   3.6065   3.6065
     3.7444   3.7444   3.8222   3.9343   3.9343   4.0209   4.0209   4.0321
     4.1751   4.1751   4.1851   4.2730   4.4198   4.4479   4.4479   5.0357
     5.0357   5.0432   5.1045   5.1045   5.7225   5.7225   5.7454   5.7454
     6.0795   6.2093   6.6723   6.6723   6.7586   6.7586   7.6454   7.9648
     8.6282   8.6282   8.6392   8.6392   9.1925   9.4254   9.4410   9.4410
     9.5431   9.5431   9.8116   9.8962   9.8962   9.9119   9.9119   9.9242
    10.0286  10.0286

     occupation numbers 
     1.0000   1.0000   1.0000   1.0000   1.0000   1.0000   1.0000   1.0000
     1.0000   1.0000   1.0000   1.0000   1.0000   1.0000   1.0000   1.0000
     1.0000   1.0000   1.0000   1.0000   1.0000   1.0000   1.0000   1.0000
     1.0000   1.0000   1.0000   1.0000   1.0000   1.0000   1.0000   1.0000
     1.0000   1.0000   1.0000   1.0000   1.0000   1.0000   1.0000   1.0000
     1.0000   1.0000   1.0000   1.0000   1.0000   1.0000   1.0000   1.0000
     1.0000   1.0000   1.0000   1.0000   1.0000   1.0000   1.0000   1.0000
     1.0000   1.0000   1.0000   1.0000   1.0000   1.0000   1.0000   1.0000
     1.0000   1.0000   1.0000   1.0000   1.0000   1.0000   1.0000   1.0000
     1.0000   1.0000   1.0000   1.0000   1.0000   1.0000   1.0000   1.0000
     1.0000   1.0000   1.0000   1.0000   1.0000   1.0000   1.0000   1.0000
     1.0000   1.0000   1.0000   1.0000   1.0000   1.0000   1.0041   0.0000
     0.0000   0.0000   0.0000   0.0000   0.0000   0.0000   0.0000   0.0000
     0.0000   0.0000   0.0000   0.0000   0.0000   0.0000   0.0000   0.0000
     0.0000   0.0000

          k = 0.0000 0.0000 0.1823 ( 64641 PWs)   bands (ev):

   -48.1064 -48.1064 -48.0303 -48.0303 -48.0303 -48.0303 -24.4654 -24.4654
   -24.2972 -24.2972 -24.2972 -24.2972 -24.2914 -24.2913 -24.1958 -24.1958
   -24.1958 -24.1958 -23.9847 -23.9847 -23.8356 -23.8356 -23.8356 -23.8356
    -9.2837  -9.2081  -8.8647  -8.6855  -8.2584  -8.2584  -8.2107  -8.1943
    -8.1699  -8.1699  -7.9705  -7.9502  -7.6326  -7.6326  -7.5967  -7.5967
     1.1473   1.1473   1.2214   1.2214   1.3702   1.5044   1.6599   1.8377
     1.9411   1.9756   1.9756   2.1620   2.1620   2.2054   2.6016   2.6660
     2.6660   2.6943   2.9967   2.9967   3.4196   3.5101   3.5736   3.5736
     3.7473   3.7473   3.7615   3.9175   3.9175   4.0346   4.0488   4.0488
     4.2473   4.2473   4.3002   4.3876   4.3969   4.4030   4.4030   4.8625
     5.0490   5.0490   5.0952   5.0952   5.7247   5.7247   5.7434   5.7434
     6.0963   6.1944   6.6560   6.6560   6.7673   6.7673   7.7213   7.9109
     8.6296   8.6296   8.6381   8.6381   9.1926   9.4360   9.4603   9.4603
     9.5193   9.5193   9.8117   9.8932   9.8932   9.9133   9.9133   9.9223
     9.9933   9.9933

     occupation numbers 
     1.0000   1.0000   1.0000   1.0000   1.0000   1.0000   1.0000   1.0000
     1.0000   1.0000   1.0000   1.0000   1.0000   1.0000   1.0000   1.0000
     1.0000   1.0000   1.0000   1.0000   1.0000   1.0000   1.0000   1.0000
     1.0000   1.0000   1.0000   1.0000   1.0000   1.0000   1.0000   1.0000
     1.0000   1.0000   1.0000   1.0000   1.0000   1.0000   1.0000   1.0000
     1.0000   1.0000   1.0000   1.0000   1.0000   1.0000   1.0000   1.0000
     1.0000   1.0000   1.0000   1.0000   1.0000   1.0000   1.0000   1.0000
     1.0000   1.0000   1.0000   1.0000   1.0000   1.0000   1.0000   1.0000
     1.0000   1.0000   1.0000   1.0000   1.0000   1.0000   1.0000   1.0000
     1.0000   1.0000   1.0000   1.0000   1.0000   1.0000   1.0000   1.0000
     1.0000   1.0000   1.0000   1.0000   1.0000   1.0000   1.0000   1.0000
     1.0000   1.0000   1.0000   1.0000   1.0000   1.0000   1.0747   0.0000
     0.0000   0.0000   0.0000   0.0000   0.0000   0.0000   0.0000   0.0000
     0.0000   0.0000   0.0000   0.0000   0.0000   0.0000   0.0000   0.0000
     0.0000   0.0000

          k = 0.0000 0.0000-0.2734 ( 64728 PWs)   bands (ev):

   -48.1064 -48.1064 -48.0303 -48.0303 -48.0303 -48.0303 -24.4654 -24.4654
   -24.2972 -24.2972 -24.2972 -24.2972 -24.2913 -24.2913 -24.1958 -24.1958
   -24.1958 -24.1958 -23.9847 -23.9847 -23.8356 -23.8356 -23.8356 -23.8356
    -9.2783  -9.2142  -8.8677  -8.6807  -8.2584  -8.2584  -8.2105  -8.1952
    -8.1700  -8.1700  -7.9622  -7.9588  -7.6323  -7.6323  -7.5970  -7.5970
     1.1528   1.1528   1.2116   1.2116   1.4210   1.4760   1.6641   1.8561
     1.8814   1.9885   1.9885   2.1651   2.1651   2.1689   2.6260   2.6549
     2.6549   2.7235   2.9931   2.9931   3.4274   3.5001   3.5588   3.5588
     3.7403   3.7498   3.7498   3.9116   3.9116   4.0354   4.0577   4.0577
     4.3192   4.3192   4.3207   4.3449   4.3449   4.3785   4.6194   4.6347
     5.0589   5.0589   5.0873   5.0873   5.7259   5.7259   5.7423   5.7423
     6.1015   6.1893   6.6487   6.6487   6.7708   6.7708   7.7904   7.8525
     8.6305   8.6305   8.6374   8.6374   9.1926   9.4413   9.4876   9.4876
     9.4897   9.4897   9.8117   9.8919   9.8919   9.9138   9.9138   9.9214
     9.9811   9.9811

     occupation numbers 
     1.0000   1.0000   1.0000   1.0000   1.0000   1.0000   1.0000   1.0000
     1.0000   1.0000   1.0000   1.0000   1.0000   1.0000   1.0000   1.0000
     1.0000   1.0000   1.0000   1.0000   1.0000   1.0000   1.0000   1.0000
     1.0000   1.0000   1.0000   1.0000   1.0000   1.0000   1.0000   1.0000
     1.0000   1.0000   1.0000   1.0000   1.0000   1.0000   1.0000   1.0000
     1.0000   1.0000   1.0000   1.0000   1.0000   1.0000   1.0000   1.0000
     1.0000   1.0000   1.0000   1.0000   1.0000   1.0000   1.0000   1.0000
     1.0000   1.0000   1.0000   1.0000   1.0000   1.0000   1.0000   1.0000
     1.0000   1.0000   1.0000   1.0000   1.0000   1.0000   1.0000   1.0000
     1.0000   1.0000   1.0000   1.0000   1.0000   1.0000   1.0000   1.0000
     1.0000   1.0000   1.0000   1.0000   1.0000   1.0000   1.0000   1.0000
     1.0000   1.0000   1.0000   1.0000   1.0000   1.0000   0.3082   0.0066
     0.0000   0.0000   0.0000   0.0000   0.0000   0.0000   0.0000   0.0000
     0.0000   0.0000   0.0000   0.0000   0.0000   0.0000   0.0000   0.0000
     0.0000   0.0000

          k =-0.0962 0.1667-0.0304 ( 64691 PWs)   bands (ev):

   -48.1063 -48.1063 -48.0305 -48.0305 -48.0303 -48.0303 -24.4626 -24.4626
   -24.2967 -24.2967 -24.2950 -24.2950 -24.2905 -24.2904 -24.1966 -24.1966
   -24.1958 -24.1958 -23.9862 -23.9862 -23.8395 -23.8395 -23.8364 -23.8364
    -9.2716  -9.1823  -8.8284  -8.6736  -8.3047  -8.2599  -8.2240  -8.2120
    -8.1825  -8.1685  -7.9696  -7.9256  -7.6593  -7.6349  -7.6210  -7.5960
     1.2303   1.2312   1.2606   1.3369   1.5151   1.6309   1.6895   1.7818
     1.9459   2.0415   2.1348   2.1835   2.2751   2.3968   2.4983   2.6428
     2.6625   2.6885   2.9903   2.9912   3.3930   3.4486   3.5378   3.5638
     3.6227   3.7246   3.7499   3.7585   3.8607   3.8934   4.0013   4.0964
     4.1490   4.1599   4.2115   4.2855   4.3447   4.3590   4.4739   4.8328
     4.8845   5.0119   5.1110   5.1473   5.4353   5.4951   5.6501   5.7105
     6.0342   6.1397   6.6741   6.6898   6.7313   6.7833   7.6109   7.9965
     8.6419   8.6461   8.6500   8.6655   9.1742   9.3380   9.4071   9.4138
     9.5183   9.5232   9.6460   9.7248   9.7710   9.8455   9.8662   9.8989
    10.1334  10.1724

     occupation numbers 
     1.0000   1.0000   1.0000   1.0000   1.0000   1.0000   1.0000   1.0000
     1.0000   1.0000   1.0000   1.0000   1.0000   1.0000   1.0000   1.0000
     1.0000   1.0000   1.0000   1.0000   1.0000   1.0000   1.0000   1.0000
     1.0000   1.0000   1.0000   1.0000   1.0000   1.0000   1.0000   1.0000
     1.0000   1.0000   1.0000   1.0000   1.0000   1.0000   1.0000   1.0000
     1.0000   1.0000   1.0000   1.0000   1.0000   1.0000   1.0000   1.0000
     1.0000   1.0000   1.0000   1.0000   1.0000   1.0000   1.0000   1.0000
     1.0000   1.0000   1.0000   1.0000   1.0000   1.0000   1.0000   1.0000
     1.0000   1.0000   1.0000   1.0000   1.0000   1.0000   1.0000   1.0000
     1.0000   1.0000   1.0000   1.0000   1.0000   1.0000   1.0000   1.0000
     1.0000   1.0000   1.0000   1.0000   1.0000   1.0000   1.0000   1.0000
     1.0000   1.0000   1.0000   1.0000   1.0000   1.0000   1.0002   0.0000
     0.0000   0.0000   0.0000   0.0000   0.0000   0.0000   0.0000   0.0000
     0.0000   0.0000   0.0000   0.0000   0.0000   0.0000   0.0000   0.0000
     0.0000   0.0000

          k =-0.0962 0.1667 0.0608 ( 64695 PWs)   bands (ev):

   -48.1063 -48.1063 -48.0305 -48.0305 -48.0303 -48.0303 -24.4626 -24.4626
   -24.2967 -24.2967 -24.2950 -24.2950 -24.2905 -24.2904 -24.1966 -24.1966
   -24.1958 -24.1958 -23.9862 -23.9862 -23.8395 -23.8395 -23.8364 -23.8364
    -9.2706  -9.1834  -8.8297  -8.6720  -8.3046  -8.2597  -8.2247  -8.2116
    -8.1824  -8.1687  -7.9687  -7.9267  -7.6599  -7.6344  -7.6205  -7.5964
     1.2346   1.2415   1.2513   1.3287   1.5179   1.6405   1.6913   1.7810
     1.9355   2.0393   2.1195   2.2199   2.2404   2.3907   2.5079   2.6431
     2.6480   2.7300   2.9844   2.9864   3.4007   3.4455   3.5411   3.5683
     3.6078   3.7263   3.7426   3.7481   3.8279   3.9143   3.9834   4.1127
     4.1647   4.1824   4.2209   4.2698   4.3518   4.3614   4.4706   4.8347
     4.9063   5.0047   5.1075   5.1163   5.4360   5.4989   5.6462   5.7164
     6.0357   6.1384   6.6615   6.6986   6.7418   6.7746   7.6204   7.9910
     8.6434   8.6443   8.6501   8.6643   9.1680   9.3572   9.4020   9.4228
     9.4815   9.5288   9.6508   9.7301   9.7744   9.8492   9.8547   9.8922
    10.1102  10.2112

     occupation numbers 
     1.0000   1.0000   1.0000   1.0000   1.0000   1.0000   1.0000   1.0000
     1.0000   1.0000   1.0000   1.0000   1.0000   1.0000   1.0000   1.0000
     1.0000   1.0000   1.0000   1.0000   1.0000   1.0000   1.0000   1.0000
     1.0000   1.0000   1.0000   1.0000   1.0000   1.0000   1.0000   1.0000
     1.0000   1.0000   1.0000   1.0000   1.0000   1.0000   1.0000   1.0000
     1.0000   1.0000   1.0000   1.0000   1.0000   1.0000   1.0000   1.0000
     1.0000   1.0000   1.0000   1.0000   1.0000   1.0000   1.0000   1.0000
     1.0000   1.0000   1.0000   1.0000   1.0000   1.0000   1.0000   1.0000
     1.0000   1.0000   1.0000   1.0000   1.0000   1.0000   1.0000   1.0000
     1.0000   1.0000   1.0000   1.0000   1.0000   1.0000   1.0000   1.0000
     1.0000   1.0000   1.0000   1.0000   1.0000   1.0000   1.0000   1.0000
     1.0000   1.0000   1.0000   1.0000   1.0000   1.0000   1.0004   0.0000
     0.0000   0.0000   0.0000   0.0000   0.0000   0.0000   0.0000   0.0000
     0.0000   0.0000   0.0000   0.0000   0.0000   0.0000   0.0000   0.0000
     0.0000   0.0000

          k =-0.0962 0.1667 0.1519 ( 64709 PWs)   bands (ev):

   -48.1063 -48.1063 -48.0305 -48.0305 -48.0303 -48.0303 -24.4626 -24.4625
   -24.2967 -24.2967 -24.2950 -24.2950 -24.2905 -24.2904 -24.1966 -24.1966
   -24.1958 -24.1958 -23.9862 -23.9862 -23.8395 -23.8395 -23.8364 -23.8364
    -9.2644  -9.1902  -8.8366  -8.6628  -8.3045  -8.2597  -8.2248  -8.2122
    -8.1828  -8.1688  -7.9630  -7.9331  -7.6597  -7.6341  -7.6206  -7.5968
     1.2402   1.2441   1.2730   1.3100   1.5264   1.6207   1.7223   1.7839
     1.9591   2.0015   2.1124   2.1895   2.2214   2.3080   2.5918   2.6303
     2.6770   2.7782   2.9712   2.9803   3.4008   3.4169   3.5202   3.5845
     3.6054   3.6899   3.7430   3.7504   3.8203   3.9291   3.9790   4.1177
     4.1671   4.2131   4.2471   4.3209   4.3671   4.4159   4.4424   4.8071
     4.9216   4.9995   5.0020   5.1172   5.4518   5.4932   5.6512   5.7126
     6.0450   6.1286   6.6479   6.6931   6.7495   6.7756   7.6781   7.9498
     8.6415   8.6437   8.6522   8.6621   9.1720   9.3699   9.4062   9.4178
     9.4757   9.5191   9.6481   9.7354   9.7813   9.8353   9.8462   9.8923
    10.0955  10.2400

     occupation numbers 
     1.0000   1.0000   1.0000   1.0000   1.0000   1.0000   1.0000   1.0000
     1.0000   1.0000   1.0000   1.0000   1.0000   1.0000   1.0000   1.0000
     1.0000   1.0000   1.0000   1.0000   1.0000   1.0000   1.0000   1.0000
     1.0000   1.0000   1.0000   1.0000   1.0000   1.0000   1.0000   1.0000
     1.0000   1.0000   1.0000   1.0000   1.0000   1.0000   1.0000   1.0000
     1.0000   1.0000   1.0000   1.0000   1.0000   1.0000   1.0000   1.0000
     1.0000   1.0000   1.0000   1.0000   1.0000   1.0000   1.0000   1.0000
     1.0000   1.0000   1.0000   1.0000   1.0000   1.0000   1.0000   1.0000
     1.0000   1.0000   1.0000   1.0000   1.0000   1.0000   1.0000   1.0000
     1.0000   1.0000   1.0000   1.0000   1.0000   1.0000   1.0000   1.0000
     1.0000   1.0000   1.0000   1.0000   1.0000   1.0000   1.0000   1.0000
     1.0000   1.0000   1.0000   1.0000   1.0000   1.0000   1.0326   0.0000
     0.0000   0.0000   0.0000   0.0000   0.0000   0.0000   0.0000   0.0000
     0.0000   0.0000   0.0000   0.0000   0.0000   0.0000   0.0000   0.0000
     0.0000   0.0000

          k =-0.0962 0.1667-0.3038 ( 64703 PWs)   bands (ev):

   -48.1063 -48.1063 -48.0305 -48.0305 -48.0303 -48.0303 -24.4626 -24.4625
   -24.2967 -24.2967 -24.2950 -24.2950 -24.2904 -24.2904 -24.1967 -24.1966
   -24.1958 -24.1958 -23.9862 -23.9862 -23.8395 -23.8395 -23.8364 -23.8364
    -9.2584  -9.1966  -8.8418  -8.6557  -8.3045  -8.2597  -8.2242  -8.2133
    -8.1834  -8.1688  -7.9553  -7.9414  -7.6590  -7.6342  -7.6212  -7.5967
     1.2373   1.2500   1.2951   1.2990   1.5445   1.5933   1.7443   1.7805
     1.9642   2.0017   2.0939   2.1752   2.1872   2.2875   2.6258   2.6397
     2.6697   2.8133   2.9646   2.9780   3.3770   3.4273   3.4939   3.5817
     3.6316   3.6603   3.7438   3.7470   3.8263   3.9385   3.9528   4.1574
     4.2028   4.2352   4.2562   4.2987   4.3830   4.4015   4.5615   4.7092
     4.8779   4.9792   5.0068   5.1127   5.4709   5.4790   5.6634   5.6997
     6.0500   6.1224   6.6445   6.6798   6.7493   6.7840   7.7451   7.8951
     8.6407   8.6422   8.6539   8.6613   9.1817   9.3561   9.4056   9.4267
     9.4982   9.5049   9.6425   9.7346   9.7850   9.8270   9.8410   9.8981
    10.0921  10.2386

     occupation numbers 
     1.0000   1.0000   1.0000   1.0000   1.0000   1.0000   1.0000   1.0000
     1.0000   1.0000   1.0000   1.0000   1.0000   1.0000   1.0000   1.0000
     1.0000   1.0000   1.0000   1.0000   1.0000   1.0000   1.0000   1.0000
     1.0000   1.0000   1.0000   1.0000   1.0000   1.0000   1.0000   1.0000
     1.0000   1.0000   1.0000   1.0000   1.0000   1.0000   1.0000   1.0000
     1.0000   1.0000   1.0000   1.0000   1.0000   1.0000   1.0000   1.0000
     1.0000   1.0000   1.0000   1.0000   1.0000   1.0000   1.0000   1.0000
     1.0000   1.0000   1.0000   1.0000   1.0000   1.0000   1.0000   1.0000
     1.0000   1.0000   1.0000   1.0000   1.0000   1.0000   1.0000   1.0000
     1.0000   1.0000   1.0000   1.0000   1.0000   1.0000   1.0000   1.0000
     1.0000   1.0000   1.0000   1.0000   1.0000   1.0000   1.0000   1.0000
     1.0000   1.0000   1.0000   1.0000   1.0000   1.0000   0.9300   0.0001
     0.0000   0.0000   0.0000   0.0000   0.0000   0.0000   0.0000   0.0000
     0.0000   0.0000   0.0000   0.0000   0.0000   0.0000   0.0000   0.0000
     0.0000   0.0000

          k =-0.0962 0.1667-0.2126 ( 64692 PWs)   bands (ev):

   -48.1063 -48.1063 -48.0305 -48.0305 -48.0303 -48.0303 -24.4626 -24.4625
   -24.2967 -24.2967 -24.2950 -24.2950 -24.2905 -24.2904 -24.1967 -24.1966
   -24.1958 -24.1958 -23.9862 -23.9862 -23.8395 -23.8395 -23.8364 -23.8364
    -9.2599  -9.1950  -8.8408  -8.6572  -8.3045  -8.2598  -8.2234  -8.2138
    -8.1836  -8.1686  -7.9578  -7.9386  -7.6584  -7.6347  -7.6218  -7.5962
     1.2350   1.2422   1.2958   1.3105   1.5515   1.5747   1.7448   1.7737
     1.9759   2.0357   2.1152   2.1242   2.1727   2.3174   2.6135   2.6457
     2.6597   2.7996   2.9716   2.9816   3.3743   3.4133   3.5002   3.5965
     3.6326   3.6735   3.7445   3.7472   3.8424   3.9354   3.9470   4.1345
     4.2272   4.2362   4.2435   4.2829   4.3582   4.4259   4.5476   4.7099
     4.8463   5.0148   5.0309   5.1066   5.4616   5.4858   5.6788   5.6824
     6.0521   6.1206   6.6541   6.6732   6.7420   6.7905   7.7265   7.9097
     8.6405   8.6420   8.6544   8.6626   9.1887   9.3345   9.4003   9.4551
     9.4748   9.5323   9.6385   9.7296   9.7780   9.8388   9.8411   9.9033
    10.1025  10.2146

     occupation numbers 
     1.0000   1.0000   1.0000   1.0000   1.0000   1.0000   1.0000   1.0000
     1.0000   1.0000   1.0000   1.0000   1.0000   1.0000   1.0000   1.0000
     1.0000   1.0000   1.0000   1.0000   1.0000   1.0000   1.0000   1.0000
     1.0000   1.0000   1.0000   1.0000   1.0000   1.0000   1.0000   1.0000
     1.0000   1.0000   1.0000   1.0000   1.0000   1.0000   1.0000   1.0000
     1.0000   1.0000   1.0000   1.0000   1.0000   1.0000   1.0000   1.0000
     1.0000   1.0000   1.0000   1.0000   1.0000   1.0000   1.0000   1.0000
     1.0000   1.0000   1.0000   1.0000   1.0000   1.0000   1.0000   1.0000
     1.0000   1.0000   1.0000   1.0000   1.0000   1.0000   1.0000   1.0000
     1.0000   1.0000   1.0000   1.0000   1.0000   1.0000   1.0000   1.0000
     1.0000   1.0000   1.0000   1.0000   1.0000   1.0000   1.0000   1.0000
     1.0000   1.0000   1.0000   1.0000   1.0000   1.0000   1.0597   0.0000
     0.0000   0.0000   0.0000   0.0000   0.0000   0.0000   0.0000   0.0000
     0.0000   0.0000   0.0000   0.0000   0.0000   0.0000   0.0000   0.0000
     0.0000   0.0000

          k =-0.0962 0.1667-0.1215 ( 64708 PWs)   bands (ev):

   -48.1063 -48.1063 -48.0305 -48.0305 -48.0303 -48.0303 -24.4626 -24.4625
   -24.2967 -24.2967 -24.2950 -24.2950 -24.2905 -24.2904 -24.1967 -24.1966
   -24.1958 -24.1958 -23.9862 -23.9862 -23.8395 -23.8395 -23.8364 -23.8364
    -9.2668  -9.1875  -8.8343  -8.6659  -8.3046  -8.2599  -8.2234  -8.2131
    -8.1831  -8.1685  -7.9655  -7.9302  -7.6586  -7.6351  -7.6217  -7.5959
     1.2316   1.2332   1.2790   1.3286   1.5241   1.6005   1.7180   1.7792
     1.9931   2.0236   2.1307   2.1352   2.2315   2.3364   2.5710   2.6453
     2.6699   2.7292   2.9849   2.9879   3.3974   3.4000   3.5206   3.6054
     3.6154   3.7027   3.7523   3.7554   3.8663   3.9089   3.9875   4.0809
     4.1775   4.1886   4.2212   4.3265   4.3550   4.3988   4.4564   4.8069
     4.8512   5.0174   5.1016   5.1057   5.4471   5.4914   5.6628   5.6971
     6.0452   6.1285   6.6698   6.6779   6.7321   6.7904   7.6550   7.9651
     8.6405   8.6441   8.6530   8.6646   9.1852   9.3274   9.3987   9.4373
     9.4992   9.5394   9.6394   9.7252   9.7719   9.8406   9.8598   9.9041
    10.1267  10.1790

     occupation numbers 
     1.0000   1.0000   1.0000   1.0000   1.0000   1.0000   1.0000   1.0000
     1.0000   1.0000   1.0000   1.0000   1.0000   1.0000   1.0000   1.0000
     1.0000   1.0000   1.0000   1.0000   1.0000   1.0000   1.0000   1.0000
     1.0000   1.0000   1.0000   1.0000   1.0000   1.0000   1.0000   1.0000
     1.0000   1.0000   1.0000   1.0000   1.0000   1.0000   1.0000   1.0000
     1.0000   1.0000   1.0000   1.0000   1.0000   1.0000   1.0000   1.0000
     1.0000   1.0000   1.0000   1.0000   1.0000   1.0000   1.0000   1.0000
     1.0000   1.0000   1.0000   1.0000   1.0000   1.0000   1.0000   1.0000
     1.0000   1.0000   1.0000   1.0000   1.0000   1.0000   1.0000   1.0000
     1.0000   1.0000   1.0000   1.0000   1.0000   1.0000   1.0000   1.0000
     1.0000   1.0000   1.0000   1.0000   1.0000   1.0000   1.0000   1.0000
     1.0000   1.0000   1.0000   1.0000   1.0000   1.0000   1.0083   0.0000
     0.0000   0.0000   0.0000   0.0000   0.0000   0.0000   0.0000   0.0000
     0.0000   0.0000   0.0000   0.0000   0.0000   0.0000   0.0000   0.0000
     0.0000   0.0000

          k =-0.1925 0.3333-0.0608 ( 64682 PWs)   bands (ev):

   -48.1060 -48.1060 -48.0307 -48.0307 -48.0303 -48.0303 -24.4569 -24.4568
   -24.2955 -24.2955 -24.2906 -24.2905 -24.2886 -24.2886 -24.1985 -24.1985
   -24.1960 -24.1960 -23.9893 -23.9893 -23.8475 -23.8475 -23.8379 -23.8379
    -9.2193  -9.1632  -8.7463  -8.5905  -8.4355  -8.3131  -8.2623  -8.2286
    -8.1887  -8.1664  -7.9454  -7.8921  -7.7097  -7.6805  -7.6377  -7.5962
     1.3905   1.4579   1.5327   1.5380   1.6834   1.7160   1.9472   2.0156
     2.0210   2.1614   2.2505   2.2798   2.4133   2.5370   2.5886   2.5928
     2.6539   2.7853   2.8528   2.8793   3.2509   3.2563   3.3180   3.4099
     3.5102   3.5258   3.5860   3.6654   3.7743   3.7781   3.8262   4.0150
     4.0557   4.1137   4.1386   4.1904   4.3615   4.4439   4.5069   4.5395
     4.6217   4.9276   4.9549   4.9982   5.0674   5.1069   5.5578   5.6098
     5.9592   6.0036   6.6491   6.6718   6.7285   6.8209   7.5741   7.9481
     8.6646   8.6846   8.6903   8.7412   9.0971   9.1970   9.2951   9.3627
     9.4046   9.4297   9.5417   9.6089   9.7827   9.8092   9.8546   9.9000
    10.0649  10.1699

     occupation numbers 
     1.0000   1.0000   1.0000   1.0000   1.0000   1.0000   1.0000   1.0000
     1.0000   1.0000   1.0000   1.0000   1.0000   1.0000   1.0000   1.0000
     1.0000   1.0000   1.0000   1.0000   1.0000   1.0000   1.0000   1.0000
     1.0000   1.0000   1.0000   1.0000   1.0000   1.0000   1.0000   1.0000
     1.0000   1.0000   1.0000   1.0000   1.0000   1.0000   1.0000   1.0000
     1.0000   1.0000   1.0000   1.0000   1.0000   1.0000   1.0000   1.0000
     1.0000   1.0000   1.0000   1.0000   1.0000   1.0000   1.0000   1.0000
     1.0000   1.0000   1.0000   1.0000   1.0000   1.0000   1.0000   1.0000
     1.0000   1.0000   1.0000   1.0000   1.0000   1.0000   1.0000   1.0000
     1.0000   1.0000   1.0000   1.0000   1.0000   1.0000   1.0000   1.0000
     1.0000   1.0000   1.0000   1.0000   1.0000   1.0000   1.0000   1.0000
     1.0000   1.0000   1.0000   1.0000   1.0000   1.0000   1.0000   0.0000
     0.0000   0.0000   0.0000   0.0000   0.0000   0.0000   0.0000   0.0000
     0.0000   0.0000   0.0000   0.0000   0.0000   0.0000   0.0000   0.0000
     0.0000   0.0000

          k =-0.1925 0.3333 0.0304 ( 64710 PWs)   bands (ev):

   -48.1060 -48.1060 -48.0307 -48.0307 -48.0303 -48.0303 -24.4569 -24.4568
   -24.2955 -24.2955 -24.2906 -24.2905 -24.2886 -24.2886 -24.1985 -24.1985
   -24.1960 -24.1960 -23.9893 -23.9893 -23.8475 -23.8475 -23.8379 -23.8379
    -9.2196  -9.1630  -8.7445  -8.5927  -8.4355  -8.3128  -8.2622  -8.2289
    -8.1879  -8.1665  -7.9461  -7.8920  -7.7100  -7.6800  -7.6374  -7.5964
     1.3908   1.4612   1.5167   1.5363   1.6616   1.7511   1.9617   1.9867
     2.0128   2.1337   2.2998   2.3076   2.4646   2.5026   2.5721   2.5768
     2.6813   2.7522   2.8418   2.9039   3.2349   3.2718   3.3079   3.3940
     3.4958   3.5585   3.5906   3.6691   3.7616   3.7706   3.8112   4.0126
     4.0275   4.1069   4.1338   4.2026   4.3819   4.4466   4.5356   4.5448
     4.6316   4.9055   4.9298   4.9875   5.0704   5.1426   5.5433   5.6289
     5.9524   6.0104   6.6398   6.6809   6.7399   6.8090   7.5696   7.9536
     8.6619   8.6847   8.7000   8.7323   9.0882   9.2064   9.2925   9.3614
     9.3809   9.4140   9.5825   9.5882   9.7528   9.8205   9.8416   9.9235
    10.1195  10.1459

     occupation numbers 
     1.0000   1.0000   1.0000   1.0000   1.0000   1.0000   1.0000   1.0000
     1.0000   1.0000   1.0000   1.0000   1.0000   1.0000   1.0000   1.0000
     1.0000   1.0000   1.0000   1.0000   1.0000   1.0000   1.0000   1.0000
     1.0000   1.0000   1.0000   1.0000   1.0000   1.0000   1.0000   1.0000
     1.0000   1.0000   1.0000   1.0000   1.0000   1.0000   1.0000   1.0000
     1.0000   1.0000   1.0000   1.0000   1.0000   1.0000   1.0000   1.0000
     1.0000   1.0000   1.0000   1.0000   1.0000   1.0000   1.0000   1.0000
     1.0000   1.0000   1.0000   1.0000   1.0000   1.0000   1.0000   1.0000
     1.0000   1.0000   1.0000   1.0000   1.0000   1.0000   1.0000   1.0000
     1.0000   1.0000   1.0000   1.0000   1.0000   1.0000   1.0000   1.0000
     1.0000   1.0000   1.0000   1.0000   1.0000   1.0000   1.0000   1.0000
     1.0000   1.0000   1.0000   1.0000   1.0000   1.0000   1.0000   0.0000
     0.0000   0.0000   0.0000   0.0000   0.0000   0.0000   0.0000   0.0000
     0.0000   0.0000   0.0000   0.0000   0.0000   0.0000   0.0000   0.0000
     0.0000   0.0000

          k =-0.1925 0.3333 0.1215 ( 64721 PWs)   bands (ev):

   -48.1060 -48.1060 -48.0307 -48.0307 -48.0303 -48.0303 -24.4569 -24.4568
   -24.2955 -24.2955 -24.2906 -24.2905 -24.2886 -24.2886 -24.1985 -24.1985
   -24.1960 -24.1960 -23.9893 -23.9893 -23.8475 -23.8475 -23.8379 -23.8379
    -9.2171  -9.1653  -8.7491  -8.5875  -8.4353  -8.3135  -8.2622  -8.2287
    -8.1878  -8.1665  -7.9429  -7.8960  -7.7106  -7.6792  -7.6375  -7.5964
     1.4065   1.4716   1.5070   1.5203   1.6501   1.7662   1.9685   1.9934
     1.9939   2.1312   2.2857   2.3163   2.4532   2.5101   2.5698   2.5701
     2.6702   2.7854   2.8360   2.9665   3.1637   3.2924   3.2978   3.4034
     3.4781   3.5667   3.5955   3.6753   3.7438   3.7896   3.8141   3.9587
     4.0419   4.0796   4.1569   4.2014   4.4136   4.4578   4.5203   4.5369
     4.6981   4.8401   4.9341   5.0006   5.0693   5.1358   5.5397   5.6368
     5.9531   6.0117   6.6325   6.6859   6.7495   6.7981   7.5922   7.9376
     8.6598   8.6835   8.6995   8.7253   9.0928   9.1810   9.2959   9.3651
     9.3913   9.4051   9.5561   9.6224   9.7391   9.8233   9.8368   9.9264
    10.1063  10.1770

     occupation numbers 
     1.0000   1.0000   1.0000   1.0000   1.0000   1.0000   1.0000   1.0000
     1.0000   1.0000   1.0000   1.0000   1.0000   1.0000   1.0000   1.0000
     1.0000   1.0000   1.0000   1.0000   1.0000   1.0000   1.0000   1.0000
     1.0000   1.0000   1.0000   1.0000   1.0000   1.0000   1.0000   1.0000
     1.0000   1.0000   1.0000   1.0000   1.0000   1.0000   1.0000   1.0000
     1.0000   1.0000   1.0000   1.0000   1.0000   1.0000   1.0000   1.0000
     1.0000   1.0000   1.0000   1.0000   1.0000   1.0000   1.0000   1.0000
     1.0000   1.0000   1.0000   1.0000   1.0000   1.0000   1.0000   1.0000
     1.0000   1.0000   1.0000   1.0000   1.0000   1.0000   1.0000   1.0000
     1.0000   1.0000   1.0000   1.0000   1.0000   1.0000   1.0000   1.0000
     1.0000   1.0000   1.0000   1.0000   1.0000   1.0000   1.0000   1.0000
     1.0000   1.0000   1.0000   1.0000   1.0000   1.0000   1.0000   0.0000
     0.0000   0.0000   0.0000   0.0000   0.0000   0.0000   0.0000   0.0000
     0.0000   0.0000   0.0000   0.0000   0.0000   0.0000   0.0000   0.0000
     0.0000   0.0000

          k =-0.1925 0.3333-0.3342 ( 64653 PWs)   bands (ev):

   -48.1060 -48.1060 -48.0307 -48.0307 -48.0303 -48.0303 -24.4569 -24.4568
   -24.2955 -24.2955 -24.2906 -24.2905 -24.2886 -24.2886 -24.1985 -24.1985
   -24.1960 -24.1960 -23.9893 -23.9893 -23.8475 -23.8475 -23.8379 -23.8379
    -9.2138  -9.1683  -8.7550  -8.5807  -8.4350  -8.3144  -8.2623  -8.2284
    -8.1884  -8.1663  -7.9383  -7.9011  -7.7109  -7.6788  -7.6379  -7.5960
     1.4234   1.4862   1.4988   1.5132   1.6435   1.7608   1.9622   1.9805
     2.0339   2.1497   2.2546   2.2655   2.4392   2.4653   2.5803   2.6093
     2.6803   2.8212   2.8424   2.9883   3.1417   3.2897   3.2912   3.4110
     3.4764   3.5510   3.5922   3.6923   3.7333   3.7762   3.8801   3.9254
     4.0431   4.0841   4.1663   4.1800   4.4473   4.4676   4.4942   4.5072
     4.7331   4.8328   4.9364   5.0207   5.0650   5.0952   5.5463   5.6298
     5.9596   6.0073   6.6315   6.6848   6.7435   6.8031   7.6236   7.9121
     8.6605   8.6822   8.6867   8.7302   9.1105   9.1500   9.3025   9.3727
     9.4083   9.4123   9.5290   9.6405   9.7515   9.8106   9.8494   9.9090
    10.0705  10.2030

     occupation numbers 
     1.0000   1.0000   1.0000   1.0000   1.0000   1.0000   1.0000   1.0000
     1.0000   1.0000   1.0000   1.0000   1.0000   1.0000   1.0000   1.0000
     1.0000   1.0000   1.0000   1.0000   1.0000   1.0000   1.0000   1.0000
     1.0000   1.0000   1.0000   1.0000   1.0000   1.0000   1.0000   1.0000
     1.0000   1.0000   1.0000   1.0000   1.0000   1.0000   1.0000   1.0000
     1.0000   1.0000   1.0000   1.0000   1.0000   1.0000   1.0000   1.0000
     1.0000   1.0000   1.0000   1.0000   1.0000   1.0000   1.0000   1.0000
     1.0000   1.0000   1.0000   1.0000   1.0000   1.0000   1.0000   1.0000
     1.0000   1.0000   1.0000   1.0000   1.0000   1.0000   1.0000   1.0000
     1.0000   1.0000   1.0000   1.0000   1.0000   1.0000   1.0000   1.0000
     1.0000   1.0000   1.0000   1.0000   1.0000   1.0000   1.0000   1.0000
     1.0000   1.0000   1.0000   1.0000   1.0000   1.0000   1.0006   0.0000
     0.0000   0.0000   0.0000   0.0000   0.0000   0.0000   0.0000   0.0000
     0.0000   0.0000   0.0000   0.0000   0.0000   0.0000   0.0000   0.0000
     0.0000   0.0000

          k =-0.1925 0.3333-0.2430 ( 64668 PWs)   bands (ev):

   -48.1060 -48.1060 -48.0307 -48.0307 -48.0303 -48.0303 -24.4569 -24.4568
   -24.2955 -24.2955 -24.2906 -24.2905 -24.2886 -24.2886 -24.1985 -24.1985
   -24.1960 -24.1960 -23.9893 -23.9893 -23.8475 -23.8475 -23.8379 -23.8379
    -9.2134  -9.1686  -8.7566  -8.5788  -8.4350  -8.3147  -8.2624  -8.2281
    -8.1892  -8.1662  -7.9374  -7.9014  -7.7107  -7.6792  -7.6382  -7.5958
     1.4184   1.4758   1.5078   1.5445   1.6389   1.7416   1.9405   1.9883
     2.0968   2.1812   2.1818   2.2450   2.3850   2.4953   2.5944   2.6102
     2.6631   2.8436   2.8540   2.9759   3.1464   3.2641   3.3285   3.4145
     3.4975   3.5210   3.5793   3.7077   3.7413   3.7765   3.8659   3.9671
     4.0471   4.1147   4.1458   4.1695   4.4290   4.4600   4.4890   4.5161
     4.6666   4.9289   4.9342   5.0287   5.0470   5.0619   5.5615   5.6099
     5.9719   5.9953   6.6380   6.6786   6.7311   6.8160   7.6295   7.9052
     8.6633   8.6788   8.6819   8.7377   9.1216   9.1454   9.3051   9.3644
     9.4262   9.4372   9.5057   9.6416   9.7854   9.8033   9.8585   9.8822
    10.0388  10.2045

     occupation numbers 
     1.0000   1.0000   1.0000   1.0000   1.0000   1.0000   1.0000   1.0000
     1.0000   1.0000   1.0000   1.0000   1.0000   1.0000   1.0000   1.0000
     1.0000   1.0000   1.0000   1.0000   1.0000   1.0000   1.0000   1.0000
     1.0000   1.0000   1.0000   1.0000   1.0000   1.0000   1.0000   1.0000
     1.0000   1.0000   1.0000   1.0000   1.0000   1.0000   1.0000   1.0000
     1.0000   1.0000   1.0000   1.0000   1.0000   1.0000   1.0000   1.0000
     1.0000   1.0000   1.0000   1.0000   1.0000   1.0000   1.0000   1.0000
     1.0000   1.0000   1.0000   1.0000   1.0000   1.0000   1.0000   1.0000
     1.0000   1.0000   1.0000   1.0000   1.0000   1.0000   1.0000   1.0000
     1.0000   1.0000   1.0000   1.0000   1.0000   1.0000   1.0000   1.0000
     1.0000   1.0000   1.0000   1.0000   1.0000   1.0000   1.0000   1.0000
     1.0000   1.0000   1.0000   1.0000   1.0000   1.0000   1.0011   0.0000
     0.0000   0.0000   0.0000   0.0000   0.0000   0.0000   0.0000   0.0000
     0.0000   0.0000   0.0000   0.0000   0.0000   0.0000   0.0000   0.0000
     0.0000   0.0000

          k =-0.1925 0.3333-0.1519 ( 64685 PWs)   bands (ev):

   -48.1060 -48.1060 -48.0307 -48.0307 -48.0303 -48.0303 -24.4569 -24.4568
   -24.2955 -24.2955 -24.2906 -24.2905 -24.2886 -24.2886 -24.1985 -24.1985
   -24.1960 -24.1960 -23.9893 -23.9893 -23.8475 -23.8475 -23.8379 -23.8379
    -9.2163  -9.1659  -8.7524  -8.5835  -8.4352  -8.3140  -8.2624  -8.2282
    -8.1894  -8.1663  -7.9415  -7.8965  -7.7101  -7.6801  -7.6381  -7.5958
     1.4026   1.4626   1.5261   1.5515   1.6641   1.7166   1.9338   2.0029
     2.0903   2.1748   2.1942   2.2551   2.3705   2.5499   2.6004   2.6012
     2.6167   2.8351   2.8587   2.9264   3.1862   3.2462   3.3692   3.4086
     3.5011   3.5136   3.5776   3.6803   3.7744   3.8002   3.8206   4.0025
     4.0631   4.1053   4.1635   4.1685   4.3765   4.4494   4.4992   4.5312
[...]
     hartree contribution      =     320.89345508 Ry
     xc contribution           =    -165.95676356 Ry
     ewald contribution        =    -751.68654090 Ry
     DFT-D3 Dispersion         =      -0.40425465 Ry

     convergence has been achieved in  37 iterations

     Forces acting on atoms (cartesian axes, Ry/au):

     atom    1 type  1   force =     0.00000007   -0.00000000    0.00001241
     atom    2 type  1   force =    -0.00000004    0.00000006    0.00001241
     atom    3 type  1   force =    -0.00000004   -0.00000006    0.00001241
     atom    4 type  1   force =    -0.00000007   -0.00000000   -0.00001241
     atom    5 type  1   force =     0.00000004   -0.00000006   -0.00001241
     atom    6 type  1   force =     0.00000004    0.00000006   -0.00001241
     atom    7 type  2   force =     0.00000000    0.00000000   -0.00000511
     atom    8 type  2   force =    -0.00001640    0.00000000    0.00001389
     atom    9 type  2   force =     0.00000820   -0.00001420    0.00001389
     atom   10 type  2   force =     0.00000820    0.00001420    0.00001389
     atom   11 type  2   force =    -0.00000000   -0.00000000    0.00002000
     atom   12 type  2   force =    -0.00001382   -0.00000000    0.00001151
     atom   13 type  2   force =     0.00000691   -0.00001197    0.00001151
     atom   14 type  2   force =     0.00000691    0.00001197    0.00001151
     atom   15 type  2   force =     0.00001382    0.00000000   -0.00001151
     atom   16 type  2   force =    -0.00000691    0.00001197   -0.00001151
     atom   17 type  2   force =    -0.00000691   -0.00001197   -0.00001151
     atom   18 type  2   force =     0.00000000   -0.00000000   -0.00002000
     atom   19 type  2   force =     0.00001640   -0.00000000   -0.00001389
     atom   20 type  2   force =    -0.00000820    0.00001420   -0.00001389
     atom   21 type  2   force =    -0.00000820   -0.00001420   -0.00001389
     atom   22 type  2   force =     0.00000000    0.00000000    0.00000511
     The non-local contrib.  to forces
     atom    1 type  1   force =    -0.20380441   -0.00000000   -0.03869512
     atom    2 type  1   force =     0.10190220   -0.17649980   -0.03869512
     atom    3 type  1   force =     0.10190220    0.17649980   -0.03869512
     atom    4 type  1   force =     0.20380441    0.00000000    0.03869512
     atom    5 type  1   force =    -0.10190220    0.17649980    0.03869512
     atom    6 type  1   force =    -0.10190220   -0.17649980    0.03869512
     atom    7 type  2   force =    -0.00000000   -0.00000000    0.24829145
     atom    8 type  2   force =    -0.09409369    0.00000000    0.13532233
     atom    9 type  2   force =     0.04704685   -0.08148753    0.13532233
     atom   10 type  2   force =     0.04704685    0.08148753    0.13532233
     atom   11 type  2   force =     0.00000000    0.00000000   -0.15241299
     atom   12 type  2   force =     0.11282731    0.00000000   -0.15952285
     atom   13 type  2   force =    -0.05641366    0.09771132   -0.15952285
     atom   14 type  2   force =    -0.05641366   -0.09771132   -0.15952285
     atom   15 type  2   force =    -0.11282731    0.00000000    0.15952285
     atom   16 type  2   force =     0.05641366   -0.09771132    0.15952285
     atom   17 type  2   force =     0.05641366    0.09771132    0.15952285
     atom   18 type  2   force =    -0.00000000    0.00000000    0.15241299
     atom   19 type  2   force =     0.09409369    0.00000000   -0.13532233
     atom   20 type  2   force =    -0.04704685    0.08148753   -0.13532233
     atom   21 type  2   force =    -0.04704685   -0.08148753   -0.13532233
     atom   22 type  2   force =     0.00000000    0.00000000   -0.24829145
     The ionic contribution  to forces
     atom    1 type  1   force =     9.67771214    0.00000000   -0.15342466
     atom    2 type  1   force =    -4.83885607    8.38114457   -0.15342466
     atom    3 type  1   force =    -4.83885607   -8.38114457   -0.15342466
     atom    4 type  1   force =    -9.67771214   -0.00000000    0.15342466
     atom    5 type  1   force =     4.83885607   -8.38114457    0.15342466
     atom    6 type  1   force =     4.83885607    8.38114457    0.15342466
     atom    7 type  2   force =     0.00000000    0.00000000  -12.98081521
     atom    8 type  2   force =     3.32638916   -0.00000000   -7.00235177
     atom    9 type  2   force =    -1.66319458    2.88073751   -7.00235176
     atom   10 type  2   force =    -1.66319458   -2.88073751   -7.00235176
     atom   11 type  2   force =     0.00000000    0.00000000    8.39314365
     atom   12 type  2   force =    -6.20878063   -0.00000000    9.11999557
     atom   13 type  2   force =     3.10439031   -5.37696175    9.11999557
     atom   14 type  2   force =     3.10439031    5.37696175    9.11999557
     atom   15 type  2   force =     6.20878063   -0.00000000   -9.11999557
     atom   16 type  2   force =    -3.10439031    5.37696175   -9.11999557
     atom   17 type  2   force =    -3.10439031   -5.37696175   -9.11999557
     atom   18 type  2   force =    -0.00000000   -0.00000000   -8.39314365
     atom   19 type  2   force =    -3.32638916    0.00000000    7.00235177
     atom   20 type  2   force =     1.66319458   -2.88073751    7.00235176
     atom   21 type  2   force =     1.66319458    2.88073751    7.00235176
     atom   22 type  2   force =    -0.00000000   -0.00000000   12.98081521
     The local contribution  to forces
     atom    1 type  1   force =    -9.47240165   -0.00000000    0.19222112
     atom    2 type  1   force =     4.73620076   -8.20334043    0.19222112
     atom    3 type  1   force =     4.73620076    8.20334043    0.19222112
     atom    4 type  1   force =     9.47240165    0.00000000   -0.19222112
     atom    5 type  1   force =    -4.73620076    8.20334043   -0.19222112
     atom    6 type  1   force =    -4.73620076   -8.20334043   -0.19222112
     atom    7 type  2   force =    -0.00000001    0.00000000   12.73300519
     atom    8 type  2   force =    -3.23328796   -0.00000000    6.86816308
     atom    9 type  2   force =     1.61664398   -2.80010951    6.86816308
     atom   10 type  2   force =     1.61664398    2.80010951    6.86816308
     atom   11 type  2   force =     0.00000000    0.00000000   -8.24341378
     atom   12 type  2   force =     6.09674775   -0.00000000   -8.96067181
     atom   13 type  2   force =    -3.04837387    5.27993843   -8.96067181
     atom   14 type  2   force =    -3.04837387   -5.27993843   -8.96067181
     atom   15 type  2   force =    -6.09674775    0.00000000    8.96067181
     atom   16 type  2   force =     3.04837387   -5.27993843    8.96067181
     atom   17 type  2   force =     3.04837387    5.27993843    8.96067181
     atom   18 type  2   force =    -0.00000000   -0.00000000    8.24341378
     atom   19 type  2   force =     3.23328796    0.00000000   -6.86816308
     atom   20 type  2   force =    -1.61664398    2.80010951   -6.86816308
     atom   21 type  2   force =    -1.61664398   -2.80010951   -6.86816308
     atom   22 type  2   force =     0.00000001   -0.00000000  -12.73300519
     The core correction contribution to forces
     atom    1 type  1   force =     0.00000000    0.00000000    0.00000000
     atom    2 type  1   force =     0.00000000    0.00000000    0.00000000
     atom    3 type  1   force =     0.00000000    0.00000000    0.00000000
     atom    4 type  1   force =     0.00000000    0.00000000    0.00000000
     atom    5 type  1   force =     0.00000000    0.00000000    0.00000000
     atom    6 type  1   force =     0.00000000    0.00000000    0.00000000
     atom    7 type  2   force =     0.00000000    0.00000000    0.00000000
     atom    8 type  2   force =     0.00000000    0.00000000    0.00000000
     atom    9 type  2   force =     0.00000000    0.00000000    0.00000000
     atom   10 type  2   force =     0.00000000    0.00000000    0.00000000
     atom   11 type  2   force =     0.00000000    0.00000000    0.00000000
     atom   12 type  2   force =     0.00000000    0.00000000    0.00000000
     atom   13 type  2   force =     0.00000000    0.00000000    0.00000000
     atom   14 type  2   force =     0.00000000    0.00000000    0.00000000
     atom   15 type  2   force =     0.00000000    0.00000000    0.00000000
     atom   16 type  2   force =     0.00000000    0.00000000    0.00000000
     atom   17 type  2   force =     0.00000000    0.00000000    0.00000000
     atom   18 type  2   force =     0.00000000    0.00000000    0.00000000
     atom   19 type  2   force =     0.00000000    0.00000000    0.00000000
     atom   20 type  2   force =     0.00000000    0.00000000    0.00000000
     atom   21 type  2   force =     0.00000000    0.00000000    0.00000000
     atom   22 type  2   force =     0.00000000    0.00000000    0.00000000
     The Hubbard contrib.    to forces
     atom    1 type  1   force =     0.00000000    0.00000000    0.00000000
     atom    2 type  1   force =     0.00000000    0.00000000    0.00000000
     atom    3 type  1   force =     0.00000000    0.00000000    0.00000000
     atom    4 type  1   force =     0.00000000    0.00000000    0.00000000
     atom    5 type  1   force =     0.00000000    0.00000000    0.00000000
     atom    6 type  1   force =     0.00000000    0.00000000    0.00000000
     atom    7 type  2   force =     0.00000000    0.00000000    0.00000000
     atom    8 type  2   force =     0.00000000    0.00000000    0.00000000
     atom    9 type  2   force =     0.00000000    0.00000000    0.00000000
     atom   10 type  2   force =     0.00000000    0.00000000    0.00000000
     atom   11 type  2   force =     0.00000000    0.00000000    0.00000000
     atom   12 type  2   force =     0.00000000    0.00000000    0.00000000
     atom   13 type  2   force =     0.00000000    0.00000000    0.00000000
     atom   14 type  2   force =     0.00000000    0.00000000    0.00000000
     atom   15 type  2   force =     0.00000000    0.00000000    0.00000000
     atom   16 type  2   force =     0.00000000    0.00000000    0.00000000
     atom   17 type  2   force =     0.00000000    0.00000000    0.00000000
     atom   18 type  2   force =     0.00000000    0.00000000    0.00000000
     atom   19 type  2   force =     0.00000000    0.00000000    0.00000000
     atom   20 type  2   force =     0.00000000    0.00000000    0.00000000
     atom   21 type  2   force =     0.00000000    0.00000000    0.00000000
     atom   22 type  2   force =     0.00000000    0.00000000    0.00000000
     The SCF correction term to forces
     atom    1 type  1   force =    -0.00000000   -0.00000000   -0.00000000
     atom    2 type  1   force =     0.00000000   -0.00000000   -0.00000000
     atom    3 type  1   force =     0.00000000    0.00000000   -0.00000000
     atom    4 type  1   force =     0.00000000   -0.00000000    0.00000000
     atom    5 type  1   force =    -0.00000000    0.00000000    0.00000000
     atom    6 type  1   force =    -0.00000000   -0.00000000    0.00000000
     atom    7 type  2   force =    -0.00000000   -0.00000000   -0.00000000
     atom    8 type  2   force =     0.00000000    0.00000000   -0.00000000
     atom    9 type  2   force =    -0.00000000    0.00000000   -0.00000000
     atom   10 type  2   force =    -0.00000000   -0.00000000   -0.00000000
     atom   11 type  2   force =     0.00000000   -0.00000000   -0.00000000
     atom   12 type  2   force =    -0.00000000    0.00000000   -0.00000000
     atom   13 type  2   force =     0.00000000   -0.00000000   -0.00000000
     atom   14 type  2   force =     0.00000000    0.00000000   -0.00000000
     atom   15 type  2   force =     0.00000000   -0.00000000    0.00000000
     atom   16 type  2   force =    -0.00000000    0.00000000    0.00000000
     atom   17 type  2   force =    -0.00000000   -0.00000000    0.00000000
     atom   18 type  2   force =    -0.00000000   -0.00000000    0.00000000
     atom   19 type  2   force =    -0.00000000   -0.00000000    0.00000000
     atom   20 type  2   force =     0.00000000   -0.00000000    0.00000000
     atom   21 type  2   force =     0.00000000    0.00000000    0.00000000
     atom   22 type  2   force =     0.00000000   -0.00000000    0.00000000

     DFT-D3 dispersion contribution to forces:
     atom    1 type  1   force =    -0.00150606   -0.00000000   -0.00008892
     atom    2 type  1   force =     0.00075303   -0.00130428   -0.00008892
     atom    3 type  1   force =     0.00075303    0.00130428   -0.00008892
     atom    4 type  1   force =     0.00150606    0.00000000    0.00008892
     atom    5 type  1   force =    -0.00075303    0.00130428    0.00008892
     atom    6 type  1   force =    -0.00075303   -0.00130428    0.00008892
     atom    7 type  2   force =    -0.00000000    0.00000000   -0.00048654
     atom    8 type  2   force =     0.00097609   -0.00000000   -0.00111976
     atom    9 type  2   force =    -0.00048805    0.00084532   -0.00111976
     atom   10 type  2   force =    -0.00048805   -0.00084532   -0.00111976
     atom   11 type  2   force =     0.00000000   -0.00000000    0.00270313
     atom   12 type  2   force =    -0.00080825    0.00000000    0.00021060
     atom   13 type  2   force =     0.00040412   -0.00069996    0.00021060
     atom   14 type  2   force =     0.00040412    0.00069996    0.00021060
     atom   15 type  2   force =     0.00080825   -0.00000000   -0.00021060
     atom   16 type  2   force =    -0.00040412    0.00069996   -0.00021060
     atom   17 type  2   force =    -0.00040412   -0.00069996   -0.00021060
     atom   18 type  2   force =    -0.00000000    0.00000000   -0.00270313
     atom   19 type  2   force =    -0.00097609    0.00000000    0.00111976
     atom   20 type  2   force =     0.00048805   -0.00084532    0.00111976
     atom   21 type  2   force =     0.00048805    0.00084532    0.00111976
     atom   22 type  2   force =     0.00000000   -0.00000000    0.00048654

     Total force =     0.000081     Total SCF correction =     0.000000

     DFT-D3 dispersion Force =     0.006795


     Computing stress (Cartesian axis) and pressure

          total   stress  (Ry/bohr**3)                   (kbar)     P=       -0.02
  -0.00000014  -0.00000000  -0.00000000           -0.02       -0.00       -0.00
  -0.00000000  -0.00000014   0.00000000           -0.00       -0.02        0.00
  -0.00000000  -0.00000000  -0.00000005           -0.00       -0.00       -0.01

     kinetic stress (kbar)   9007.95     -0.00      0.00
                                0.00   9007.95     -0.00
                                0.00     -0.00   8916.16

     local   stress (kbar) -11171.88      0.00      0.00
                                0.00 -11171.88      0.00
                                0.00      0.00   3588.13

     nonloc. stress (kbar)   4785.28     -0.00      0.00
                                0.00   4785.28     -0.00
                                0.00     -0.00   4806.91

     hartree stress (kbar)   6309.02      0.00     -0.00
                                0.00   6309.02     -0.00
                               -0.00     -0.00   -292.89

     exc-cor stress (kbar)  -1987.43     -0.00     -0.00
                               -0.00  -1987.43      0.00
                               -0.00      0.00  -1990.14

     corecor stress (kbar)      0.00      0.00      0.00
                                0.00      0.00      0.00
                                0.00      0.00      0.00

     ewald   stress (kbar)  -6929.77      0.00      0.00
                                0.00  -6929.77      0.00
                                0.00      0.00 -15011.91

     hubbard stress (kbar)      0.00      0.00      0.00
                                0.00      0.00      0.00
                                0.00      0.00      0.00

     DFT-D   stress (kbar)    -13.20      0.00     -0.00
                                0.00    -13.20     -0.00
                               -0.00     -0.00    -16.27

     XDM     stress (kbar)      0.00      0.00      0.00
                                0.00      0.00      0.00
                                0.00      0.00      0.00

     dft-nl  stress (kbar)      0.00      0.00      0.00
                                0.00      0.00      0.00
                                0.00      0.00      0.00

     TS-vdW  stress (kbar)      0.00      0.00      0.00
                                0.00      0.00      0.00
                                0.00      0.00      0.00

     MDB     stress (kbar)      0.00      0.00      0.00
                                0.00      0.00      0.00
                                0.00      0.00      0.00

     3D-RISM stress (kbar)      0.00      0.00      0.00
                                0.00      0.00      0.00
                                0.00      0.00      0.00


     Writing all to output data dir ./out/Nb3Br8.save/ :
     XML data file, charge density, pseudopotentials, collected wavefunctions

     init_run     :      2.90s CPU      3.12s WALL (       1 calls)
     electrons    :    277.89s CPU    284.66s WALL (       1 calls)
     forces       :      0.70s CPU      0.75s WALL (       1 calls)
     force_dftd3  :      0.04s CPU      0.04s WALL (       1 calls)
     stress       :      6.50s CPU      6.68s WALL (       1 calls)
     stres_dftd3  :      0.04s CPU      0.04s WALL (       1 calls)

     Called by init_run:
     wfcinit      :      1.44s CPU      1.52s WALL (       1 calls)
     wfcinit:wfcr :      1.36s CPU      1.42s WALL (       3 calls)
     potinit      :      0.22s CPU      0.25s WALL (       1 calls)
     hinit0       :      0.95s CPU      1.01s WALL (       1 calls)

     Called by electrons:
     c_bands      :    235.39s CPU    239.93s WALL (      38 calls)
     sum_band     :     36.19s CPU     37.04s WALL (      38 calls)
     v_of_rho     :      4.67s CPU      5.29s WALL (      38 calls)
     v_h          :      0.27s CPU      0.30s WALL (      38 calls)
     v_xc         :      4.41s CPU      4.99s WALL (      38 calls)
     mix_rho      :      0.49s CPU      0.52s WALL (      38 calls)
     energy_dftd3 :      0.00s CPU      0.00s WALL (       1 calls)

     Called by c_bands:
     init_us_2    :      3.39s CPU      3.48s WALL (     237 calls)
     cegterg      :    181.67s CPU    185.64s WALL (     115 calls)

     Called by sum_band:
     sum_band:wei :      0.18s CPU      0.18s WALL (      38 calls)
     sum_band:loo :     34.72s CPU     35.41s WALL (      38 calls)
     sum_band:buf :      0.37s CPU      0.38s WALL (     114 calls)
     sum_band:ini :      1.65s CPU      1.69s WALL (     114 calls)

     Called by *egterg:
     cdiaghg      :     14.46s CPU     14.59s WALL (     829 calls)
     cegterg:over :      6.78s CPU      6.87s WALL (     717 calls)
     cegterg:upda :      4.08s CPU      4.23s WALL (     717 calls)
     cegterg:last :      5.26s CPU      5.33s WALL (     245 calls)
     h_psi        :    149.17s CPU    152.56s WALL (     835 calls)
     g_psi        :      0.14s CPU      0.14s WALL (     717 calls)

     Called by h_psi:
     h_psi:calbec :     10.92s CPU     11.19s WALL (     835 calls)
     vloc_psi     :    128.84s CPU    131.29s WALL (     835 calls)
     add_vuspsi   :      8.97s CPU      9.11s WALL (     835 calls)

     General routines
     calbec       :     11.41s CPU     11.69s WALL (     850 calls)
     fft          :      2.19s CPU      2.40s WALL (     388 calls)
     ffts         :      0.52s CPU      0.55s WALL (      38 calls)
     fftw         :    131.12s CPU    133.50s WALL (   88350 calls)

     Parallel routines

     PWSCF        :    298.80s CPU    318.51s WALL


   This run was terminated on:  18:50:21   5Jul2025            

=------------------------------------------------------------------------------=
   JOB DONE.
=------------------------------------------------------------------------------=
