
     Program PWSCF v.7.3.1 starts on  7May2025 at 12:18:40 

     This program is part of the open-source Quantum ESPRESSO suite
     for quantum simulation of materials; please cite
         "P. Giannozzi et al., J. Phys.:Condens. Matter 21 395502 (2009);
         "P. Giannozzi et al., J. Phys.:Condens. Matter 29 465901 (2017);
         "P. Giannozzi et al., J. Chem. Phys. 152 154105 (2020);
          URL http://www.quantum-espresso.org", 
     in publications or presentations arising from this work. More details at
     http://www.quantum-espresso.org/quote

     Parallel version (MPI & OpenMP), running on     384 processor cores
     Number of MPI processes:               384
     Threads/MPI process:                     1

     MPI processes distributed on     2 nodes
     344238 MiB available memory on the printing compute node when the environment starts

     Waiting for input...
     Reading input from standard input
Warning: card &CELL ignored
Warning: card / ignored
Warning: card &FCP ignored
Warning: card / ignored
Warning: card &RISM ignored
Warning: card / ignored

     Current dimensions of program PWSCF are:
     Max number of different atomic species (ntypx) = 10
     Max number of k-points (npk) =  40000
     Max angular momentum in pseudopotentials (lmaxx) =  4

     IMPORTANT: XC functional enforced from input :
     Exchange-correlation= PBE
                           (   1   4   3   4   0   0   0)
     Any further DFT definition will be discarded
     Please, verify this is what you really want

     Message from routine setup:
     using ibrav=0 with symmetry is DISCOURAGED, use correct ibrav instead
     Message from routine setup:
     Dynamics, you should have no symmetries

     K-points division:     npool     =      16
     R & G space division:  proc/nbgrp/npool/nimage =      24
     Subspace diagonalization in iterative solution of the eigenvalue problem:
     a serial algorithm will be used

     Message from routine divide_et_impera:
     suboptimal parallelization: some nodes have no k-points

     Parallelization info
     --------------------
     sticks:   dense  smooth     PW     G-vecs:    dense   smooth      PW
     Min         142     142     38                27850    27850    3886
     Max         143     143     39                27875    27875    3911
     Sum        3427    3427    925               668819   668819   93523

     Using Slab Decomposition



     bravais-lattice index     =            0
     lattice parameter (alat)  =      11.1557  a.u.
     unit-cell volume          =    4949.5834 (a.u.)^3
     number of atoms/cell      =           22
     number of atomic types    =            2
     number of electrons       =       190.00
     number of Kohn-Sham states=          114
     kinetic-energy cutoff     =     100.0000  Ry
     charge density cutoff     =     400.0000  Ry
     scf convergence threshold =      1.0E-12
     mixing beta               =       0.7000
     number of iterations used =            8  plain     mixing
     energy convergence thresh.=      1.0E-04
     force convergence thresh. =      1.0E-06
     Exchange-correlation= PBE
                           (   1   4   3   4   0   0   0)
     nstep                     =           50


     celldm(1)=  11.155732  celldm(2)=   0.000000  celldm(3)=   0.000000
     celldm(4)=   0.000000  celldm(5)=   0.000000  celldm(6)=   0.000000

     crystal axes: (cart. coord. in units of alat)
               a(1) = (   0.866025   0.500000   0.000000 )  
               a(2) = (  -0.866025   0.500000   0.000000 )  
               a(3) = (   0.000000   0.000000   4.116649 )  

     reciprocal axes: (cart. coord. in units 2 pi/alat)
               b(1) = (  0.577350  1.000000 -0.000000 )  
               b(2) = ( -0.577350  1.000000  0.000000 )  
               b(3) = (  0.000000 -0.000000  0.242916 )  


     PseudoPot. # 1 for Nb read from file:
     /scratch-shared/mroesner/Nb3X8_cDFPT/pp/Nb_ONCV_PBE-1.2.upf
     MD5 check sum: 2c750ac0b6910ff4cf0ab5f6c4124a64
     Pseudo is Norm-conserving, Zval = 13.0
     Generated using ONCVPSP code by D. R. Hamann
     Using radial grid of  602 points,  6 beta functions with: 
                l(1) =   0
                l(2) =   0
                l(3) =   1
                l(4) =   1
                l(5) =   2
                l(6) =   2

     PseudoPot. # 2 for F  read from file:
     /scratch-shared/mroesner/Nb3X8_cDFPT/pp/F_ONCV_PBE-1.2.upf
     MD5 check sum: 1d8275f47d602dd53cad6bcdc0eda7dc
     Pseudo is Norm-conserving, Zval =  7.0
     Generated using ONCVPSP code by D. R. Hamann
     Using radial grid of  602 points,  4 beta functions with: 
                l(1) =   0
                l(2) =   0
                l(3) =   1
                l(4) =   1

     atomic species   valence    mass     pseudopotential
     Nb               13.00    92.90637     Nb( 1.00)
     F                 7.00    18.99840     F ( 1.00)

     12 Sym. Ops., with inversion, found


                                    s                        frac. trans.

      isym =  1     identity                                     

 cryst.   s( 1) = (     1          0          0      )
                  (     0          1          0      )
                  (     0          0          1      )

 cart.    s( 1) = (  1.0000000 -0.0000000  0.0000000 )
                  (  0.0000000  1.0000000  0.0000000 )
                  (  0.0000000  0.0000000  1.0000000 )


      isym =  2     180 deg rotation - cart. axis [0,1,0]        

 cryst.   s( 2) = (     0          1          0      )
                  (     1          0          0      )
                  (     0          0         -1      )

 cart.    s( 2) = ( -1.0000000 -0.0000000  0.0000000 )
                  ( -0.0000000  1.0000000  0.0000000 )
                  (  0.0000000  0.0000000 -1.0000000 )


      isym =  3     120 deg rotation - cryst. axis [0,0,1]       

 cryst.   s( 3) = (     0          1          0      )
                  (    -1         -1          0      )
                  (     0          0          1      )

 cart.    s( 3) = ( -0.5000000 -0.8660254  0.0000000 )
                  (  0.8660254 -0.5000000  0.0000000 )
                  (  0.0000000  0.0000000  1.0000000 )


      isym =  4     120 deg rotation - cryst. axis [0,0,-1]      

 cryst.   s( 4) = (    -1         -1          0      )
                  (     1          0          0      )
                  (     0          0          1      )

 cart.    s( 4) = ( -0.5000000  0.8660254  0.0000000 )
                  ( -0.8660254 -0.5000000  0.0000000 )
                  (  0.0000000  0.0000000  1.0000000 )


      isym =  5     180 deg rotation - cryst. axis [1,-1,0]      

 cryst.   s( 5) = (    -1         -1          0      )
                  (     0          1          0      )
                  (     0          0         -1      )

 cart.    s( 5) = (  0.5000000 -0.8660254  0.0000000 )
                  ( -0.8660254 -0.5000000  0.0000000 )
                  (  0.0000000  0.0000000 -1.0000000 )


      isym =  6     180 deg rotation - cryst. axis [2,1,0]       

 cryst.   s( 6) = (     1          0          0      )
                  (    -1         -1          0      )
                  (     0          0         -1      )

 cart.    s( 6) = (  0.5000000  0.8660254  0.0000000 )
                  (  0.8660254 -0.5000000  0.0000000 )
                  (  0.0000000  0.0000000 -1.0000000 )


      isym =  7     inversion                                    

 cryst.   s( 7) = (    -1          0          0      )
                  (     0         -1          0      )
                  (     0          0         -1      )

 cart.    s( 7) = ( -1.0000000  0.0000000  0.0000000 )
                  ( -0.0000000 -1.0000000  0.0000000 )
                  (  0.0000000  0.0000000 -1.0000000 )


      isym =  8     inv. 180 deg rotation - cart. axis [0,1,0]   

 cryst.   s( 8) = (     0         -1          0      )
                  (    -1          0          0      )
                  (     0          0          1      )

 cart.    s( 8) = (  1.0000000  0.0000000  0.0000000 )
                  (  0.0000000 -1.0000000  0.0000000 )
                  (  0.0000000  0.0000000  1.0000000 )


      isym =  9     inv. 120 deg rotation - cryst. axis [0,0,1]  

 cryst.   s( 9) = (     0         -1          0      )
                  (     1          1          0      )
                  (     0          0         -1      )

 cart.    s( 9) = (  0.5000000  0.8660254  0.0000000 )
                  ( -0.8660254  0.5000000  0.0000000 )
                  (  0.0000000  0.0000000 -1.0000000 )


      isym = 10     inv. 120 deg rotation - cryst. axis [0,0,-1] 

 cryst.   s(10) = (     1          1          0      )
                  (    -1          0          0      )
                  (     0          0         -1      )

 cart.    s(10) = (  0.5000000 -0.8660254  0.0000000 )
                  (  0.8660254  0.5000000  0.0000000 )
                  (  0.0000000  0.0000000 -1.0000000 )


      isym = 11     inv. 180 deg rotation - cryst. axis [1,-1,0] 

 cryst.   s(11) = (     1          1          0      )
                  (     0         -1          0      )
                  (     0          0          1      )

 cart.    s(11) = ( -0.5000000  0.8660254  0.0000000 )
                  (  0.8660254  0.5000000  0.0000000 )
                  (  0.0000000  0.0000000  1.0000000 )


      isym = 12     inv. 180 deg rotation - cryst. axis [2,1,0]  

 cryst.   s(12) = (    -1          0          0      )
                  (     1          1          0      )
                  (     0          0          1      )

 cart.    s(12) = ( -0.5000000 -0.8660254  0.0000000 )
                  ( -0.8660254  0.5000000  0.0000000 )
                  (  0.0000000  0.0000000  1.0000000 )


   Cartesian axes

     site n.     atom                  positions (alat units)
         1        Nb     tau(   1) = (   0.2520974   0.0000000  -0.4120060  )
         2        Nb     tau(   2) = (  -0.1260487   0.2183227  -0.4120060  )
         3        Nb     tau(   3) = (  -0.1260487  -0.2183227  -0.4120060  )
         4        Nb     tau(   4) = (  -0.2520974  -0.0000000   0.4120060  )
         5        Nb     tau(   5) = (   0.1260487  -0.2183227   0.4120060  )
         6        Nb     tau(   6) = (   0.1260487   0.2183227   0.4120060  )
         7        F      tau(   7) = (   0.0000000   0.0000000  -0.6758146  )
         8        F      tau(   8) = (   0.8568626   0.0000000  -0.5966453  )
         9        F      tau(   9) = (   0.4375941   0.2420648  -0.5966453  )
        10        F      tau(  10) = (   0.4375941  -0.2420648  -0.5966453  )
        11        F      tau(  11) = (   0.5773503  -0.0000000  -0.2213304  )
        12        F      tau(  12) = (  -0.2837036   0.0000000  -0.1872051  )
        13        F      tau(  13) = (   0.1418518  -0.2456946  -0.1872051  )
        14        F      tau(  14) = (   0.1418518   0.2456946  -0.1872051  )
        15        F      tau(  15) = (   0.2837036  -0.0000000   0.1872051  )
        16        F      tau(  16) = (  -0.1418518   0.2456946   0.1872051  )
        17        F      tau(  17) = (  -0.1418518  -0.2456946   0.1872051  )
        18        F      tau(  18) = (  -0.5773503   0.0000000   0.2213304  )
        19        F      tau(  19) = (  -0.8568626  -0.0000000   0.5966453  )
        20        F      tau(  20) = (  -0.4375941  -0.2420648   0.5966453  )
        21        F      tau(  21) = (  -0.4375941   0.2420648   0.5966453  )
        22        F      tau(  22) = (   0.0000000   0.0000000   0.6758146  )

     --------------------------------------------
     DFT-D3 Dispersion Correction (no 3-body):
     --------------------------------------------
       Reference C6 values for interpolation: 

         atom   Coordination number   C6
         F          0.000            19.38
         F          0.998            14.27
         Nb         0.000          2950.50
         Nb         1.954          1161.16
         Nb         2.922           857.79

       Values used:

         atom   Coordination number  R0_AB[au]  C6      C8
         Nb         9.445            3.647    857.79 111659.18
         Nb         9.445            3.647    857.79 111659.18
         Nb         9.445            3.647    857.79 111659.18
         Nb         9.445            3.647    857.79 111659.18
         Nb         9.445            3.647    857.79 111659.18
         Nb         9.445            3.647    857.79 111659.18
         F          2.918            2.173     14.27    244.15
         F          2.020            2.173     14.27    244.15
         F          2.020            2.173     14.27    244.15
         F          2.020            2.173     14.27    244.15
         F          2.858            2.173     14.27    244.15
         F          2.047            2.173     14.27    244.15
         F          2.047            2.173     14.27    244.15
         F          2.047            2.173     14.27    244.15
         F          2.047            2.173     14.27    244.15
         F          2.047            2.173     14.27    244.15
         F          2.047            2.173     14.27    244.15
         F          2.858            2.173     14.27    244.15
         F          2.020            2.173     14.27    244.15
         F          2.020            2.173     14.27    244.15
         F          2.020            2.173     14.27    244.15
         F          2.918            2.173     14.27    244.15

         Molecular C6 ( Ry / a.u.^6 ) =     52655.74


   Crystallographic axes

     site n.     atom                  positions (cryst. coord.)
         1        Nb     tau(   1) = (  0.1455485 -0.1455485 -0.1000829  )
         2        Nb     tau(   2) = (  0.1455485  0.2910970 -0.1000829  )
         3        Nb     tau(   3) = ( -0.2910970 -0.1455485 -0.1000829  )
         4        Nb     tau(   4) = ( -0.1455485  0.1455485  0.1000829  )
         5        Nb     tau(   5) = ( -0.1455485 -0.2910970  0.1000829  )
         6        Nb     tau(   6) = (  0.2910970  0.1455485  0.1000829  )
         7        F      tau(   7) = (  0.0000000  0.0000000 -0.1641662  )
         8        F      tau(   8) = (  0.4947099 -0.4947099 -0.1449347  )
         9        F      tau(   9) = (  0.4947099 -0.0105803 -0.1449347  )
        10        F      tau(  10) = (  0.0105803 -0.4947099 -0.1449347  )
        11        F      tau(  11) = (  0.3333333 -0.3333333 -0.0537647  )
        12        F      tau(  12) = ( -0.1637964  0.1637964 -0.0454751  )
        13        F      tau(  13) = ( -0.1637964 -0.3275927 -0.0454751  )
        14        F      tau(  14) = (  0.3275927  0.1637964 -0.0454751  )
        15        F      tau(  15) = (  0.1637964 -0.1637964  0.0454751  )
        16        F      tau(  16) = (  0.1637964  0.3275927  0.0454751  )
        17        F      tau(  17) = ( -0.3275927 -0.1637964  0.0454751  )
        18        F      tau(  18) = ( -0.3333333  0.3333333  0.0537647  )
        19        F      tau(  19) = ( -0.4947099  0.4947099  0.1449347  )
        20        F      tau(  20) = ( -0.4947099  0.0105803  0.1449347  )
        21        F      tau(  21) = ( -0.0105803  0.4947099  0.1449347  )
        22        F      tau(  22) = (  0.0000000  0.0000000  0.1641662  )

     number of k points=     7  Marzari-Vanderbilt smearing, width (Ry)=  0.0037
                       cart. coord. in units 2pi/alat
        k(    1) = (   0.0000000   0.0000000   0.0000000), wk =   0.0555556
        k(    2) = (  -0.0962250   0.1666667   0.0000000), wk =   0.3333333
        k(    3) = (  -0.1924501   0.3333333   0.0000000), wk =   0.3333333
        k(    4) = (   0.2886751  -0.5000000   0.0000000), wk =   0.1666667
        k(    5) = (  -0.0000000   0.3333333   0.0000000), wk =   0.3333333
        k(    6) = (  -0.0962250   0.5000000   0.0000000), wk =   0.6666667
        k(    7) = (  -0.0000000   0.6666667   0.0000000), wk =   0.1111111

                       cryst. coord.
        k(    1) = (   0.0000000   0.0000000   0.0000000), wk =   0.0555556
        k(    2) = (  -0.0000000   0.1666667   0.0000000), wk =   0.3333333
        k(    3) = (  -0.0000000   0.3333333   0.0000000), wk =   0.3333333
        k(    4) = (   0.0000000  -0.5000000   0.0000000), wk =   0.1666667
        k(    5) = (   0.1666667   0.1666667   0.0000000), wk =   0.3333333
        k(    6) = (   0.1666667   0.3333333   0.0000000), wk =   0.6666667
        k(    7) = (   0.3333333   0.3333333   0.0000000), wk =   0.1111111

     Dense  grid:   668819 G-vectors     FFT dimensions: (  72,  72, 300)

     Dynamical RAM for                 wfc:       6.06 MB

     Dynamical RAM for     wfc (w. buffer):       6.06 MB

     Dynamical RAM for           str. fact:       0.85 MB

     Dynamical RAM for           local pot:       0.00 MB

     Dynamical RAM for          nlocal pot:      12.54 MB

     Dynamical RAM for                qrad:       3.21 MB

     Dynamical RAM for          rho,v,vnew:       2.82 MB

     Dynamical RAM for               rhoin:       0.94 MB

     Dynamical RAM for            rho*nmix:       6.81 MB

     Dynamical RAM for           G-vectors:       1.81 MB

     Dynamical RAM for          h,s,v(r/c):       2.38 MB

     Dynamical RAM for          <psi|beta>:       0.41 MB

     Dynamical RAM for                 psi:      12.11 MB

     Dynamical RAM for                hpsi:      12.11 MB

     Dynamical RAM for      wfcinit/wfcrot:      12.41 MB

     Estimated static dynamical RAM per process >      32.07 MB

     Estimated max dynamical RAM per process >      65.89 MB

     Estimated total dynamical RAM >      22.32 GB

     Initial potential from superposition of free atoms

     starting charge     189.3015, renormalised to     190.0000

     negative rho (up, down):  1.054E-03 0.000E+00
     Starting wfcs are random

     total cpu time spent up to now is        4.9 secs

     per-process dynamical memory:   174.6 Mb

     Self-consistent Calculation

     iteration #  1     ecut=   100.00 Ry     beta= 0.70
     Davidson diagonalization with overlap

---- Real-time Memory Report at c_bands before calling an iterative solver
           244 MiB given to the printing process from OS
           170 MiB allocation reported by mallinfo(arena+hblkhd)
        332867 MiB available memory on the node where the printing process lives
------------------
     ethr =  1.00E-02,  avg # of iterations = 15.7

     Threshold (ethr) on eigenvalues was too large:
     Diagonalizing with lowered threshold

     Davidson diagonalization with overlap

---- Real-time Memory Report at c_bands before calling an iterative solver
           275 MiB given to the printing process from OS
           170 MiB allocation reported by mallinfo(arena+hblkhd)
        332646 MiB available memory on the node where the printing process lives
------------------
     ethr =  8.32E-04,  avg # of iterations =  9.1

     negative rho (up, down):  1.774E-04 0.000E+00

     total cpu time spent up to now is       10.0 secs

     total energy              =   -1450.17681096 Ry
     estimated scf accuracy    <       1.81012165 Ry

     iteration #  2     ecut=   100.00 Ry     beta= 0.70
     Davidson diagonalization with overlap

---- Real-time Memory Report at c_bands before calling an iterative solver
           275 MiB given to the printing process from OS
           173 MiB allocation reported by mallinfo(arena+hblkhd)
        333391 MiB available memory on the node where the printing process lives
------------------
     ethr =  9.53E-04,  avg # of iterations =  6.7

     negative rho (up, down):  8.890E-05 0.000E+00

     total cpu time spent up to now is       11.5 secs

     total energy              =   -1450.37010169 Ry
     estimated scf accuracy    <       2.14281702 Ry

     iteration #  3     ecut=   100.00 Ry     beta= 0.70
     Davidson diagonalization with overlap

---- Real-time Memory Report at c_bands before calling an iterative solver
           279 MiB given to the printing process from OS
           174 MiB allocation reported by mallinfo(arena+hblkhd)
        333339 MiB available memory on the node where the printing process lives
------------------
     ethr =  9.53E-04,  avg # of iterations =  3.4

     negative rho (up, down):  2.829E-05 0.000E+00

     total cpu time spent up to now is       12.7 secs

     total energy              =   -1450.87237904 Ry
     estimated scf accuracy    <       0.10063329 Ry

     iteration #  4     ecut=   100.00 Ry     beta= 0.70
     Davidson diagonalization with overlap

---- Real-time Memory Report at c_bands before calling an iterative solver
           280 MiB given to the printing process from OS
           174 MiB allocation reported by mallinfo(arena+hblkhd)
        333336 MiB available memory on the node where the printing process lives
------------------
     c_bands:  1 eigenvalues not converged
     ethr =  5.30E-05,  avg # of iterations =  9.9

     negative rho (up, down):  5.088E-06 0.000E+00

     total cpu time spent up to now is       14.5 secs

     total energy              =   -1450.89142350 Ry
     estimated scf accuracy    <       0.01751840 Ry

     iteration #  5     ecut=   100.00 Ry     beta= 0.70
     Davidson diagonalization with overlap

---- Real-time Memory Report at c_bands before calling an iterative solver
           280 MiB given to the printing process from OS
           175 MiB allocation reported by mallinfo(arena+hblkhd)
        333312 MiB available memory on the node where the printing process lives
------------------
     ethr =  9.22E-06,  avg # of iterations =  8.9

     negative rho (up, down):  1.386E-07 0.000E+00

     total cpu time spent up to now is       16.1 secs

     total energy              =   -1450.89428641 Ry
     estimated scf accuracy    <       0.00995705 Ry

     iteration #  6     ecut=   100.00 Ry     beta= 0.70
     Davidson diagonalization with overlap

---- Real-time Memory Report at c_bands before calling an iterative solver
           283 MiB given to the printing process from OS
           176 MiB allocation reported by mallinfo(arena+hblkhd)
        333298 MiB available memory on the node where the printing process lives
------------------
     ethr =  5.24E-06,  avg # of iterations =  5.7

     total cpu time spent up to now is       17.3 secs

     total energy              =   -1450.89625762 Ry
     estimated scf accuracy    <       0.00026444 Ry

     iteration #  7     ecut=   100.00 Ry     beta= 0.70
     Davidson diagonalization with overlap

---- Real-time Memory Report at c_bands before calling an iterative solver
           283 MiB given to the printing process from OS
           177 MiB allocation reported by mallinfo(arena+hblkhd)
        333282 MiB available memory on the node where the printing process lives
------------------
     ethr =  1.39E-07,  avg # of iterations = 13.0

     total cpu time spent up to now is       19.0 secs

     total energy              =   -1450.89634112 Ry
     estimated scf accuracy    <       0.00008439 Ry

     iteration #  8     ecut=   100.00 Ry     beta= 0.70
     Davidson diagonalization with overlap

---- Real-time Memory Report at c_bands before calling an iterative solver
           285 MiB given to the printing process from OS
           178 MiB allocation reported by mallinfo(arena+hblkhd)
        333268 MiB available memory on the node where the printing process lives
------------------
     ethr =  4.44E-08,  avg # of iterations =  6.4

     total cpu time spent up to now is       20.5 secs

     total energy              =   -1450.89635478 Ry
     estimated scf accuracy    <       0.00000693 Ry

     iteration #  9     ecut=   100.00 Ry     beta= 0.70
     Davidson diagonalization with overlap

---- Real-time Memory Report at c_bands before calling an iterative solver
           285 MiB given to the printing process from OS
           179 MiB allocation reported by mallinfo(arena+hblkhd)
        333257 MiB available memory on the node where the printing process lives
------------------
     ethr =  3.65E-09,  avg # of iterations =  8.9

     total cpu time spent up to now is       21.9 secs

     total energy              =   -1450.89635641 Ry
     estimated scf accuracy    <       0.00000030 Ry

     iteration # 10     ecut=   100.00 Ry     beta= 0.70
     Davidson diagonalization with overlap

---- Real-time Memory Report at c_bands before calling an iterative solver
           287 MiB given to the printing process from OS
           179 MiB allocation reported by mallinfo(arena+hblkhd)
        333271 MiB available memory on the node where the printing process lives
------------------
     ethr =  1.56E-10,  avg # of iterations =  9.7

     total cpu time spent up to now is       23.7 secs

     total energy              =   -1450.89635645 Ry
     estimated scf accuracy    <       0.00000009 Ry

     iteration # 11     ecut=   100.00 Ry     beta= 0.70
     Davidson diagonalization with overlap

---- Real-time Memory Report at c_bands before calling an iterative solver
           287 MiB given to the printing process from OS
           179 MiB allocation reported by mallinfo(arena+hblkhd)
        333249 MiB available memory on the node where the printing process lives
------------------
     ethr =  4.89E-11,  avg # of iterations =  5.6

     total cpu time spent up to now is       25.2 secs

     total energy              =   -1450.89635647 Ry
     estimated scf accuracy    <          4.3E-09 Ry

     iteration # 12     ecut=   100.00 Ry     beta= 0.70
     Davidson diagonalization with overlap

---- Real-time Memory Report at c_bands before calling an iterative solver
           287 MiB given to the printing process from OS
           179 MiB allocation reported by mallinfo(arena+hblkhd)
        333268 MiB available memory on the node where the printing process lives
------------------
     ethr =  2.25E-12,  avg # of iterations = 10.6

     total cpu time spent up to now is       26.8 secs

     total energy              =   -1450.89635647 Ry
     estimated scf accuracy    <          7.2E-10 Ry

     iteration # 13     ecut=   100.00 Ry     beta= 0.70
     Davidson diagonalization with overlap

---- Real-time Memory Report at c_bands before calling an iterative solver
           287 MiB given to the printing process from OS
           179 MiB allocation reported by mallinfo(arena+hblkhd)
        333276 MiB available memory on the node where the printing process lives
------------------
     ethr =  3.79E-13,  avg # of iterations =  6.4

     total cpu time spent up to now is       28.2 secs

     total energy              =   -1450.89635647 Ry
     estimated scf accuracy    <          6.9E-11 Ry

     iteration # 14     ecut=   100.00 Ry     beta= 0.70
     Davidson diagonalization with overlap

---- Real-time Memory Report at c_bands before calling an iterative solver
           289 MiB given to the printing process from OS
           179 MiB allocation reported by mallinfo(arena+hblkhd)
        333270 MiB available memory on the node where the printing process lives
------------------
     ethr =  1.00E-13,  avg # of iterations =  6.9

     total cpu time spent up to now is       29.4 secs

     total energy              =   -1450.89635647 Ry
     estimated scf accuracy    <          1.2E-12 Ry

     iteration # 15     ecut=   100.00 Ry     beta= 0.70
     Davidson diagonalization with overlap

---- Real-time Memory Report at c_bands before calling an iterative solver
           289 MiB given to the printing process from OS
           179 MiB allocation reported by mallinfo(arena+hblkhd)
        333278 MiB available memory on the node where the printing process lives
------------------
     ethr =  1.00E-13,  avg # of iterations =  1.4

     total cpu time spent up to now is       30.2 secs

     End of self-consistent calculation

          k = 0.0000 0.0000 0.0000 ( 83541 PWs)   bands (ev):

   -55.5722 -55.5722 -55.3055 -55.3055 -55.3055 -55.3055 -32.7242 -32.7237
   -32.1760 -32.1760 -32.1747 -32.1747 -32.0572 -32.0514 -31.5364 -31.5364
   -31.5353 -31.5353 -31.1116 -31.1115 -30.8833 -30.8833 -30.8831 -30.8831
   -25.2066 -25.1914 -24.5729 -24.5668 -24.5477 -24.4702 -24.3962 -24.3962
   -24.3500 -24.3500 -23.8367 -23.7504 -23.7290 -23.7290 -23.6920 -23.6920
    -7.7669  -7.7669  -7.7556  -7.6924  -7.6924  -7.6582  -7.4536  -7.3443
    -7.1851  -7.0309  -7.0309  -6.9862  -6.9862  -6.8566  -6.7704  -6.7591
    -6.7591  -6.6920  -6.6083  -6.6083  -6.4668  -6.4478  -6.4478  -6.3428
    -6.3428  -6.2534  -5.7931  -5.7931  -5.7834  -5.7834  -5.7530  -5.6094
    -5.5975  -5.5407  -5.4513  -5.4492  -5.4492  -5.4321  -5.4321  -5.0844
    -5.0844  -5.0631  -4.9475  -4.9475  -4.8592  -4.8592  -4.8454  -4.8454
    -1.2029  -1.1440  -0.4517  -0.4517  -0.3901  -0.3901   1.1737   1.1855
     2.2723   2.2723   2.2958   2.2958   2.7265   2.8823   3.1803   3.1803
     3.2121   3.2121   3.4987   3.9444   4.0114   4.0114   4.0834   4.0976
     4.1256   4.1256

     occupation numbers 
     1.0000   1.0000   1.0000   1.0000   1.0000   1.0000   1.0000   1.0000
     1.0000   1.0000   1.0000   1.0000   1.0000   1.0000   1.0000   1.0000
     1.0000   1.0000   1.0000   1.0000   1.0000   1.0000   1.0000   1.0000
     1.0000   1.0000   1.0000   1.0000   1.0000   1.0000   1.0000   1.0000
     1.0000   1.0000   1.0000   1.0000   1.0000   1.0000   1.0000   1.0000
     1.0000   1.0000   1.0000   1.0000   1.0000   1.0000   1.0000   1.0000
     1.0000   1.0000   1.0000   1.0000   1.0000   1.0000   1.0000   1.0000
     1.0000   1.0000   1.0000   1.0000   1.0000   1.0000   1.0000   1.0000
     1.0000   1.0000   1.0000   1.0000   1.0000   1.0000   1.0000   1.0000
     1.0000   1.0000   1.0000   1.0000   1.0000   1.0000   1.0000   1.0000
     1.0000   1.0000   1.0000   1.0000   1.0000   1.0000   1.0000   1.0000
     1.0000   1.0000   1.0000   1.0000   1.0000   1.0000   0.0000   0.0000
     0.0000   0.0000   0.0000   0.0000   0.0000   0.0000   0.0000   0.0000
     0.0000   0.0000   0.0000   0.0000   0.0000   0.0000   0.0000   0.0000
     0.0000   0.0000

          k =-0.0962 0.1667 0.0000 ( 83555 PWs)   bands (ev):

   -55.5689 -55.5688 -55.3090 -55.3090 -55.3055 -55.3055 -32.6811 -32.6805
   -32.1671 -32.1658 -32.1395 -32.1382 -32.0420 -32.0364 -31.5583 -31.5571
   -31.5402 -31.5391 -31.1438 -31.1437 -30.9554 -30.9551 -30.8951 -30.8949
   -25.1647 -25.1515 -24.5890 -24.5859 -24.5216 -24.4373 -24.3791 -24.3484
   -24.3392 -24.3003 -23.8557 -23.7841 -23.7663 -23.7361 -23.7302 -23.7102
    -7.7840  -7.7442  -7.6969  -7.6477  -7.5543  -7.5186  -7.4563  -7.3299
    -7.3038  -7.1776  -7.0763  -7.0522  -6.8798  -6.8427  -6.7697  -6.7415
    -6.6049  -6.5956  -6.5852  -6.5228  -6.5081  -6.4627  -6.4200  -6.3314
    -6.3014  -6.2073  -5.9059  -5.8604  -5.8280  -5.8108  -5.7298  -5.6362
    -5.5932  -5.5516  -5.5150  -5.4535  -5.4387  -5.4161  -5.4030  -5.1788
    -5.1394  -5.1205  -5.0487  -4.9936  -4.8948  -4.8514  -4.8300  -4.7881
    -1.2404  -1.1932  -0.4173  -0.4108  -0.3645  -0.3502   1.1083   1.1201
     2.2772   2.2782   2.3009   2.3031   2.7875   2.9378   3.0510   3.0872
     3.1262   3.1650   3.7039   3.8006   3.8191   3.8280   3.9021   4.1613
     4.2120   4.2176

     occupation numbers 
     1.0000   1.0000   1.0000   1.0000   1.0000   1.0000   1.0000   1.0000
     1.0000   1.0000   1.0000   1.0000   1.0000   1.0000   1.0000   1.0000
     1.0000   1.0000   1.0000   1.0000   1.0000   1.0000   1.0000   1.0000
     1.0000   1.0000   1.0000   1.0000   1.0000   1.0000   1.0000   1.0000
     1.0000   1.0000   1.0000   1.0000   1.0000   1.0000   1.0000   1.0000
     1.0000   1.0000   1.0000   1.0000   1.0000   1.0000   1.0000   1.0000
     1.0000   1.0000   1.0000   1.0000   1.0000   1.0000   1.0000   1.0000
     1.0000   1.0000   1.0000   1.0000   1.0000   1.0000   1.0000   1.0000
     1.0000   1.0000   1.0000   1.0000   1.0000   1.0000   1.0000   1.0000
     1.0000   1.0000   1.0000   1.0000   1.0000   1.0000   1.0000   1.0000
     1.0000   1.0000   1.0000   1.0000   1.0000   1.0000   1.0000   1.0000
     1.0000   1.0000   1.0000   1.0000   1.0000   1.0000   0.0000   0.0000
     0.0000   0.0000   0.0000   0.0000   0.0000   0.0000   0.0000   0.0000
     0.0000   0.0000   0.0000   0.0000   0.0000   0.0000   0.0000   0.0000
     0.0000   0.0000

          k =-0.1925 0.3333 0.0000 ( 83585 PWs)   bands (ev):

   -55.5619 -55.5619 -55.3164 -55.3164 -55.3056 -55.3055 -32.5890 -32.5882
   -32.1385 -32.1373 -32.0539 -32.0525 -32.0072 -32.0018 -31.6097 -31.6085
   -31.5529 -31.5518 -31.2221 -31.2219 -31.1122 -31.1115 -30.9118 -30.9116
   -25.0681 -25.0599 -24.6527 -24.6494 -24.4529 -24.4208 -24.2819 -24.2547
   -24.2263 -24.1705 -23.9390 -23.8994 -23.8675 -23.8372 -23.7358 -23.7307
    -7.8255  -7.7594  -7.6562  -7.5292  -7.5209  -7.3747  -7.2199  -7.2093
    -7.1057  -7.0946  -7.0758  -7.0115  -6.8744  -6.8631  -6.7698  -6.7097
    -6.6514  -6.6121  -6.5759  -6.5654  -6.5304  -6.4661  -6.3717  -6.3104
    -6.2026  -6.1454  -6.0342  -5.9513  -5.9368  -5.7947  -5.7331  -5.6560
    -5.6275  -5.5935  -5.5530  -5.5069  -5.4695  -5.4410  -5.4180  -5.3059
    -5.3054  -5.1738  -5.1150  -5.0759  -4.9267  -4.8721  -4.8205  -4.7303
    -1.3183  -1.2979  -0.3401  -0.3220  -0.3101  -0.2700   0.9744   0.9850
     2.2683   2.2953   2.2974   2.3176   2.7714   2.8088   2.9621   2.9759
     3.0084   3.0550   3.5063   3.5715   3.5833   3.5837   4.0875   4.1168
     4.1852   4.2059

     occupation numbers 
     1.0000   1.0000   1.0000   1.0000   1.0000   1.0000   1.0000   1.0000
     1.0000   1.0000   1.0000   1.0000   1.0000   1.0000   1.0000   1.0000
     1.0000   1.0000   1.0000   1.0000   1.0000   1.0000   1.0000   1.0000
     1.0000   1.0000   1.0000   1.0000   1.0000   1.0000   1.0000   1.0000
     1.0000   1.0000   1.0000   1.0000   1.0000   1.0000   1.0000   1.0000
     1.0000   1.0000   1.0000   1.0000   1.0000   1.0000   1.0000   1.0000
     1.0000   1.0000   1.0000   1.0000   1.0000   1.0000   1.0000   1.0000
     1.0000   1.0000   1.0000   1.0000   1.0000   1.0000   1.0000   1.0000
     1.0000   1.0000   1.0000   1.0000   1.0000   1.0000   1.0000   1.0000
     1.0000   1.0000   1.0000   1.0000   1.0000   1.0000   1.0000   1.0000
     1.0000   1.0000   1.0000   1.0000   1.0000   1.0000   1.0000   1.0000
     1.0000   1.0000   1.0000   1.0000   1.0000   1.0000   0.2019   0.1189
     0.0000   0.0000   0.0000   0.0000   0.0000   0.0000   0.0000   0.0000
     0.0000   0.0000   0.0000   0.0000   0.0000   0.0000   0.0000   0.0000
     0.0000   0.0000

          k = 0.2887-0.5000 0.0000 ( 83612 PWs)   bands (ev):

   -55.5583 -55.5583 -55.3203 -55.3202 -55.3056 -55.3056 -32.5405 -32.5396
   -32.1138 -32.1126 -32.0012 -31.9997 -31.9864 -31.9812 -31.6422 -31.6411
   -31.5649 -31.5639 -31.2679 -31.2677 -31.1993 -31.1985 -30.9177 -30.9175
   -25.0062 -25.0022 -24.7000 -24.6932 -24.4295 -24.4230 -24.1847 -24.1202
   -24.1077 -24.0386 -24.0370 -24.0335 -23.9632 -23.9630 -23.7391 -23.7306
    -7.8573  -7.8534  -7.6847  -7.4956  -7.2917  -7.1897  -7.1490  -7.0661
    -7.0193  -6.9888  -6.9512  -6.9298  -6.9202  -6.8979  -6.8929  -6.7813
    -6.6832  -6.6808  -6.6033  -6.5343  -6.5130  -6.4244  -6.3900  -6.2622
    -6.2016  -6.2001  -6.1805  -6.0924  -5.9396  -5.7810  -5.7280  -5.6959
    -5.5950  -5.5829  -5.5745  -5.5599  -5.4953  -5.4902  -5.4144  -5.3801
    -5.2499  -5.2037  -5.1236  -5.1119  -4.9570  -4.9132  -4.8104  -4.7073
    -1.3573  -1.3546  -0.2938  -0.2830  -0.2720  -0.2306   0.9059   0.9138
     2.2438   2.2745   2.3061   2.3267   2.6552   2.6844   2.8913   2.9067
     3.0432   3.1330   3.3790   3.4038   3.5067   3.5129   4.0229   4.0493
     4.1931   4.1943

     occupation numbers 
     1.0000   1.0000   1.0000   1.0000   1.0000   1.0000   1.0000   1.0000
     1.0000   1.0000   1.0000   1.0000   1.0000   1.0000   1.0000   1.0000
     1.0000   1.0000   1.0000   1.0000   1.0000   1.0000   1.0000   1.0000
     1.0000   1.0000   1.0000   1.0000   1.0000   1.0000   1.0000   1.0000
     1.0000   1.0000   1.0000   1.0000   1.0000   1.0000   1.0000   1.0000
     1.0000   1.0000   1.0000   1.0000   1.0000   1.0000   1.0000   1.0000
     1.0000   1.0000   1.0000   1.0000   1.0000   1.0000   1.0000   1.0000
     1.0000   1.0000   1.0000   1.0000   1.0000   1.0000   1.0000   1.0000
     1.0000   1.0000   1.0000   1.0000   1.0000   1.0000   1.0000   1.0000
     1.0000   1.0000   1.0000   1.0000   1.0000   1.0000   1.0000   1.0000
     1.0000   1.0000   1.0000   1.0000   1.0000   1.0000   1.0000   1.0000
     1.0000   1.0000   1.0000   1.0000   1.0000   1.0000   1.0352   0.9799
     0.0000   0.0000   0.0000   0.0000   0.0000   0.0000   0.0000   0.0000
     0.0000   0.0000   0.0000   0.0000   0.0000   0.0000   0.0000   0.0000
     0.0000   0.0000

          k =-0.0000 0.3333 0.0000 ( 83628 PWs)   bands (ev):

   -55.5637 -55.5637 -55.3145 -55.3145 -55.3056 -55.3055 -32.6112 -32.6104
   -32.1495 -32.1483 -32.0799 -32.0785 -32.0162 -32.0108 -31.5943 -31.5933
   -31.5487 -31.5478 -31.2047 -31.2046 -31.0494 -31.0489 -30.9246 -30.9244
   -25.0944 -25.0847 -24.6326 -24.6324 -24.4563 -24.3771 -24.3684 -24.3237
   -24.2382 -24.2043 -23.9150 -23.8828 -23.7910 -23.7721 -23.7593 -23.7523
    -7.7863  -7.7592  -7.5848  -7.5822  -7.5381  -7.4378  -7.3236  -7.2479
    -7.2194  -7.1553  -7.1200  -7.0259  -6.9840  -6.7488  -6.6820  -6.6711
    -6.6262  -6.5879  -6.5494  -6.5260  -6.4975  -6.4930  -6.3786  -6.3496
    -6.2563  -6.1463  -5.9914  -5.9426  -5.8522  -5.8402  -5.7711  -5.6570
    -5.6089  -5.5972  -5.5396  -5.4504  -5.4330  -5.4169  -5.4135  -5.3339
    -5.2726  -5.2222  -5.1327  -5.0001  -4.8796  -4.8545  -4.8108  -4.7871
    -1.2968  -1.2704  -0.3696  -0.3509  -0.3182  -0.2832   1.0093   1.0205
     2.2697   2.2709   2.3169   2.3200   2.8366   2.8794   2.9232   3.0132
     3.0642   3.0813   3.5633   3.5736   3.6653   3.7257   3.9609   3.9677
     4.1867   4.3733

     occupation numbers 
     1.0000   1.0000   1.0000   1.0000   1.0000   1.0000   1.0000   1.0000
     1.0000   1.0000   1.0000   1.0000   1.0000   1.0000   1.0000   1.0000
     1.0000   1.0000   1.0000   1.0000   1.0000   1.0000   1.0000   1.0000
     1.0000   1.0000   1.0000   1.0000   1.0000   1.0000   1.0000   1.0000
     1.0000   1.0000   1.0000   1.0000   1.0000   1.0000   1.0000   1.0000
     1.0000   1.0000   1.0000   1.0000   1.0000   1.0000   1.0000   1.0000
     1.0000   1.0000   1.0000   1.0000   1.0000   1.0000   1.0000   1.0000
     1.0000   1.0000   1.0000   1.0000   1.0000   1.0000   1.0000   1.0000
     1.0000   1.0000   1.0000   1.0000   1.0000   1.0000   1.0000   1.0000
     1.0000   1.0000   1.0000   1.0000   1.0000   1.0000   1.0000   1.0000
     1.0000   1.0000   1.0000   1.0000   1.0000   1.0000   1.0000   1.0000
     1.0000   1.0000   1.0000   1.0000   1.0000   1.0000   0.0258   0.0109
     0.0000   0.0000   0.0000   0.0000   0.0000   0.0000   0.0000   0.0000
     0.0000   0.0000   0.0000   0.0000   0.0000   0.0000   0.0000   0.0000
     0.0000   0.0000

          k =-0.0962 0.5000 0.0000 ( 83565 PWs)   bands (ev):

   -55.5583 -55.5583 -55.3202 -55.3202 -55.3056 -55.3056 -32.5325 -32.5316
   -32.1150 -32.1138 -32.0266 -32.0252 -31.9868 -31.9818 -31.6304 -31.6294
   -31.5669 -31.5659 -31.2654 -31.2651 -31.1582 -31.1576 -30.9522 -30.9520
   -25.0061 -25.0012 -24.6983 -24.6946 -24.3903 -24.3734 -24.2501 -24.2395
   -24.1133 -24.0959 -24.0060 -24.0032 -23.8872 -23.8725 -23.7748 -23.7645
    -7.8385  -7.8050  -7.6325  -7.4922  -7.4100  -7.2746  -7.2290  -7.1816
    -7.0992  -6.9817  -6.9628  -6.9332  -6.9198  -6.8387  -6.7890  -6.6772
    -6.6304  -6.5688  -6.5524  -6.5151  -6.4749  -6.4282  -6.4214  -6.3100
    -6.2228  -6.1991  -6.1065  -6.0442  -5.9300  -5.8333  -5.7694  -5.6991
    -5.6925  -5.6379  -5.5949  -5.5235  -5.4921  -5.4691  -5.4524  -5.4241
    -5.2726  -5.2072  -5.1116  -5.0289  -4.9103  -4.8673  -4.8541  -4.7513
    -1.3527  -1.3503  -0.3218  -0.3150  -0.2378  -0.2127   0.9093   0.9179
     2.2329   2.2418   2.3332   2.3369   2.7388   2.7515   2.9118   2.9330
     3.0703   3.1463   3.3732   3.3816   3.4551   3.4984   3.8565   3.8820
     4.3435   4.4063

     occupation numbers 
     1.0000   1.0000   1.0000   1.0000   1.0000   1.0000   1.0000   1.0000
     1.0000   1.0000   1.0000   1.0000   1.0000   1.0000   1.0000   1.0000
     1.0000   1.0000   1.0000   1.0000   1.0000   1.0000   1.0000   1.0000
     1.0000   1.0000   1.0000   1.0000   1.0000   1.0000   1.0000   1.0000
     1.0000   1.0000   1.0000   1.0000   1.0000   1.0000   1.0000   1.0000
     1.0000   1.0000   1.0000   1.0000   1.0000   1.0000   1.0000   1.0000
     1.0000   1.0000   1.0000   1.0000   1.0000   1.0000   1.0000   1.0000
     1.0000   1.0000   1.0000   1.0000   1.0000   1.0000   1.0000   1.0000
     1.0000   1.0000   1.0000   1.0000   1.0000   1.0000   1.0000   1.0000
     1.0000   1.0000   1.0000   1.0000   1.0000   1.0000   1.0000   1.0000
     1.0000   1.0000   1.0000   1.0000   1.0000   1.0000   1.0000   1.0000
     1.0000   1.0000   1.0000   1.0000   1.0000   1.0000   1.0147   0.9426
     0.0000   0.0000   0.0000   0.0000   0.0000   0.0000   0.0000   0.0000
     0.0000   0.0000   0.0000   0.0000   0.0000   0.0000   0.0000   0.0000
     0.0000   0.0000

          k =-0.0000 0.6667 0.0000 ( 83670 PWs)   bands (ev):

   -55.5564 -55.5564 -55.3222 -55.3222 -55.3056 -55.3056 -32.4958 -32.4948
   -32.0774 -32.0774 -32.0575 -32.0575 -31.9782 -31.9733 -31.6253 -31.6253
   -31.5811 -31.5811 -31.2638 -31.2637 -31.1757 -31.1757 -30.9952 -30.9952
   -24.9668 -24.9636 -24.7273 -24.7273 -24.3031 -24.2668 -24.2668 -24.2121
   -24.2121 -24.1842 -23.9342 -23.9342 -23.8799 -23.8659 -23.8659 -23.8225
    -7.8439  -7.7288  -7.6094  -7.6094  -7.3255  -7.3255  -7.1821  -7.1821
    -7.1275  -7.0570  -6.9126  -6.9126  -6.7445  -6.7445  -6.7328  -6.6859
    -6.6128  -6.6128  -6.5219  -6.4200  -6.4200  -6.3967  -6.3712  -6.3712
    -6.3370  -6.1044  -6.1044  -6.0172  -5.9436  -5.9436  -5.8467  -5.8086
    -5.8086  -5.6742  -5.6147  -5.6147  -5.5230  -5.5230  -5.4335  -5.3649
    -5.2325  -5.2325  -5.0170  -5.0170  -4.9327  -4.8509  -4.8509  -4.8157
    -1.3756  -1.3650  -0.3196  -0.3196  -0.1867  -0.1867   0.8784   0.8861
     2.2116   2.2116   2.3472   2.3472   2.8244   2.8244   2.8789   2.8789
     3.1914   3.1933   3.2611   3.2695   3.3541   3.3541   3.7650   3.7650
     4.5023   4.5023

     occupation numbers 
     1.0000   1.0000   1.0000   1.0000   1.0000   1.0000   1.0000   1.0000
     1.0000   1.0000   1.0000   1.0000   1.0000   1.0000   1.0000   1.0000
     1.0000   1.0000   1.0000   1.0000   1.0000   1.0000   1.0000   1.0000
     1.0000   1.0000   1.0000   1.0000   1.0000   1.0000   1.0000   1.0000
     1.0000   1.0000   1.0000   1.0000   1.0000   1.0000   1.0000   1.0000
     1.0000   1.0000   1.0000   1.0000   1.0000   1.0000   1.0000   1.0000
     1.0000   1.0000   1.0000   1.0000   1.0000   1.0000   1.0000   1.0000
     1.0000   1.0000   1.0000   1.0000   1.0000   1.0000   1.0000   1.0000
     1.0000   1.0000   1.0000   1.0000   1.0000   1.0000   1.0000   1.0000
     1.0000   1.0000   1.0000   1.0000   1.0000   1.0000   1.0000   1.0000
     1.0000   1.0000   1.0000   1.0000   1.0000   1.0000   1.0000   1.0000
     1.0000   1.0000   1.0000   1.0000   1.0000   1.0000   1.0778   1.0833
     0.0000   0.0000   0.0000   0.0000   0.0000   0.0000   0.0000   0.0000
     0.0000   0.0000   0.0000   0.0000   0.0000   0.0000   0.0000   0.0000
     0.0000   0.0000

     the Fermi energy is     0.9574 ev

!    total energy              =   -1450.89635647 Ry
     estimated scf accuracy    <          4.7E-13 Ry
     smearing contrib. (-TS)   =       0.00020268 Ry
     internal energy E=F+TS    =   -1450.89655915 Ry

     convergence has been achieved in  15 iterations

     Forces acting on atoms (cartesian axes, Ry/au):

     atom    1 type  1   force =     0.00167007   -0.00000000    0.00256382
     atom    2 type  1   force =    -0.00083503    0.00144632    0.00256382
     atom    3 type  1   force =    -0.00083503   -0.00144632    0.00256382
     atom    4 type  1   force =    -0.00167007   -0.00000000   -0.00256382
     atom    5 type  1   force =     0.00083503   -0.00144632   -0.00256382
     atom    6 type  1   force =     0.00083503    0.00144632   -0.00256382
     atom    7 type  2   force =     0.00000000   -0.00000000   -0.00950915
     atom    8 type  2   force =    -0.00190902   -0.00000000   -0.00260632
     atom    9 type  2   force =     0.00095451   -0.00165326   -0.00260632
     atom   10 type  2   force =     0.00095451    0.00165326   -0.00260632
     atom   11 type  2   force =    -0.00000000    0.00000000   -0.00039557
     atom   12 type  2   force =     0.00029704   -0.00000000   -0.00027677
     atom   13 type  2   force =    -0.00014852    0.00025724   -0.00027677
     atom   14 type  2   force =    -0.00014852   -0.00025724   -0.00027677
     atom   15 type  2   force =    -0.00029704    0.00000000    0.00027677
     atom   16 type  2   force =     0.00014852   -0.00025724    0.00027677
     atom   17 type  2   force =     0.00014852    0.00025724    0.00027677
     atom   18 type  2   force =     0.00000000   -0.00000000    0.00039557
     atom   19 type  2   force =     0.00190902   -0.00000000    0.00260632
     atom   20 type  2   force =    -0.00095451    0.00165326    0.00260632
     atom   21 type  2   force =    -0.00095451   -0.00165326    0.00260632
     atom   22 type  2   force =     0.00000000    0.00000000    0.00950915
     The non-local contrib.  to forces
     atom    1 type  1   force =    -0.37444462   -0.00000000   -0.05384915
     atom    2 type  1   force =     0.18722231   -0.32427856   -0.05384915
     atom    3 type  1   force =     0.18722231    0.32427856   -0.05384915
     atom    4 type  1   force =     0.37444462   -0.00000000    0.05384915
     atom    5 type  1   force =    -0.18722231    0.32427856    0.05384915
     atom    6 type  1   force =    -0.18722231   -0.32427856    0.05384915
     atom    7 type  2   force =     0.00000000    0.00000000    1.50912034
     atom    8 type  2   force =    -0.61194613    0.00000000    0.94061479
     atom    9 type  2   force =     0.30597307   -0.52996090    0.94061479
     atom   10 type  2   force =     0.30597307    0.52996090    0.94061479
     atom   11 type  2   force =    -0.00000000   -0.00000000   -1.09340241
     atom   12 type  2   force =     0.79742366   -0.00000000   -1.16420405
     atom   13 type  2   force =    -0.39871183    0.69058915   -1.16420405
     atom   14 type  2   force =    -0.39871183   -0.69058915   -1.16420405
     atom   15 type  2   force =    -0.79742366   -0.00000000    1.16420405
     atom   16 type  2   force =     0.39871183   -0.69058915    1.16420405
     atom   17 type  2   force =     0.39871183    0.69058915    1.16420405
     atom   18 type  2   force =    -0.00000000   -0.00000000    1.09340241
     atom   19 type  2   force =     0.61194613    0.00000000   -0.94061479
     atom   20 type  2   force =    -0.30597307    0.52996090   -0.94061479
     atom   21 type  2   force =    -0.30597307   -0.52996090   -0.94061479
     atom   22 type  2   force =     0.00000000    0.00000000   -1.50912034
     The ionic contribution  to forces
     atom    1 type  1   force =     7.45405512    0.00000000  -88.20032964
     atom    2 type  1   force =    -3.72702756    6.45540109  -88.20032964
     atom    3 type  1   force =    -3.72702756   -6.45540109  -88.20032964
     atom    4 type  1   force =    -7.45405512   -0.00000000   88.20032964
     atom    5 type  1   force =     3.72702756   -6.45540109   88.20032964
     atom    6 type  1   force =     3.72702756    6.45540109   88.20032964
     atom    7 type  2   force =     0.00000000    0.00000000  -90.85262059
     atom    8 type  2   force =     6.53065473   -0.00000000  -77.79005118
     atom    9 type  2   force =    -3.26532736    5.65571290  -77.79005118
     atom   10 type  2   force =    -3.26532736   -5.65571290  -77.79005118
     atom   11 type  2   force =     0.00000000    0.00000000  -13.09997726
     atom   12 type  2   force =    -9.50786194   -0.00000000  -10.84360535
     atom   13 type  2   force =     4.75393097   -8.23404998  -10.84360535
     atom   14 type  2   force =     4.75393097    8.23404998  -10.84360535
     atom   15 type  2   force =     9.50786194    0.00000000   10.84360535
     atom   16 type  2   force =    -4.75393097    8.23404998   10.84360535
     atom   17 type  2   force =    -4.75393097   -8.23404998   10.84360535
     atom   18 type  2   force =    -0.00000000   -0.00000000   13.09997726
     atom   19 type  2   force =    -6.53065473    0.00000000   77.79005118
     atom   20 type  2   force =     3.26532736   -5.65571290   77.79005118
     atom   21 type  2   force =     3.26532736    5.65571290   77.79005118
     atom   22 type  2   force =    -0.00000000   -0.00000000   90.85262059
     The local contribution  to forces
     atom    1 type  1   force =    -7.07690032   -0.00000000   88.25268967
     atom    2 type  1   force =     3.53845016   -6.12877546   88.25268967
     atom    3 type  1   force =     3.53845016    6.12877546   88.25268967
     atom    4 type  1   force =     7.07690032    0.00000000  -88.25268967
     atom    5 type  1   force =    -3.53845016    6.12877546  -88.25268967
     atom    6 type  1   force =    -3.53845016   -6.12877546  -88.25268967
     atom    7 type  2   force =     0.00000000    0.00000000   89.33329527
     atom    8 type  2   force =    -5.92078899   -0.00000000   76.84596982
     atom    9 type  2   force =     2.96039450   -5.12755368   76.84596982
     atom   10 type  2   force =     2.96039450    5.12755368   76.84596982
     atom   11 type  2   force =     0.00000000    0.00000000   14.19218990
     atom   12 type  2   force =     8.71109968   -0.00000000   12.00695492
     atom   13 type  2   force =    -4.35554984    7.54403362   12.00695492
     atom   14 type  2   force =    -4.35554984   -7.54403362   12.00695492
     atom   15 type  2   force =    -8.71109968    0.00000000  -12.00695492
     atom   16 type  2   force =     4.35554984   -7.54403362  -12.00695492
     atom   17 type  2   force =     4.35554984    7.54403362  -12.00695492
     atom   18 type  2   force =    -0.00000000   -0.00000000  -14.19218990
     atom   19 type  2   force =     5.92078899    0.00000000  -76.84596982
     atom   20 type  2   force =    -2.96039450    5.12755368  -76.84596982
     atom   21 type  2   force =    -2.96039450   -5.12755368  -76.84596982
     atom   22 type  2   force =    -0.00000000    0.00000000  -89.33329527
     The core correction contribution to forces
     atom    1 type  1   force =     0.00000000    0.00000000    0.00000000
     atom    2 type  1   force =     0.00000000    0.00000000    0.00000000
     atom    3 type  1   force =     0.00000000    0.00000000    0.00000000
     atom    4 type  1   force =     0.00000000    0.00000000    0.00000000
     atom    5 type  1   force =     0.00000000    0.00000000    0.00000000
     atom    6 type  1   force =     0.00000000    0.00000000    0.00000000
     atom    7 type  2   force =     0.00000000    0.00000000    0.00000000
     atom    8 type  2   force =     0.00000000    0.00000000    0.00000000
     atom    9 type  2   force =     0.00000000    0.00000000    0.00000000
     atom   10 type  2   force =     0.00000000    0.00000000    0.00000000
     atom   11 type  2   force =     0.00000000    0.00000000    0.00000000
     atom   12 type  2   force =     0.00000000    0.00000000    0.00000000
     atom   13 type  2   force =     0.00000000    0.00000000    0.00000000
     atom   14 type  2   force =     0.00000000    0.00000000    0.00000000
     atom   15 type  2   force =     0.00000000    0.00000000    0.00000000
     atom   16 type  2   force =     0.00000000    0.00000000    0.00000000
     atom   17 type  2   force =     0.00000000    0.00000000    0.00000000
     atom   18 type  2   force =     0.00000000    0.00000000    0.00000000
     atom   19 type  2   force =     0.00000000    0.00000000    0.00000000
     atom   20 type  2   force =     0.00000000    0.00000000    0.00000000
     atom   21 type  2   force =     0.00000000    0.00000000    0.00000000
     atom   22 type  2   force =     0.00000000    0.00000000    0.00000000
     The Hubbard contrib.    to forces
     atom    1 type  1   force =     0.00000000    0.00000000    0.00000000
     atom    2 type  1   force =     0.00000000    0.00000000    0.00000000
     atom    3 type  1   force =     0.00000000    0.00000000    0.00000000
     atom    4 type  1   force =     0.00000000    0.00000000    0.00000000
     atom    5 type  1   force =     0.00000000    0.00000000    0.00000000
     atom    6 type  1   force =     0.00000000    0.00000000    0.00000000
     atom    7 type  2   force =     0.00000000    0.00000000    0.00000000
     atom    8 type  2   force =     0.00000000    0.00000000    0.00000000
     atom    9 type  2   force =     0.00000000    0.00000000    0.00000000
     atom   10 type  2   force =     0.00000000    0.00000000    0.00000000
     atom   11 type  2   force =     0.00000000    0.00000000    0.00000000
     atom   12 type  2   force =     0.00000000    0.00000000    0.00000000
     atom   13 type  2   force =     0.00000000    0.00000000    0.00000000
     atom   14 type  2   force =     0.00000000    0.00000000    0.00000000
     atom   15 type  2   force =     0.00000000    0.00000000    0.00000000
     atom   16 type  2   force =     0.00000000    0.00000000    0.00000000
     atom   17 type  2   force =     0.00000000    0.00000000    0.00000000
     atom   18 type  2   force =     0.00000000    0.00000000    0.00000000
     atom   19 type  2   force =     0.00000000    0.00000000    0.00000000
     atom   20 type  2   force =     0.00000000    0.00000000    0.00000000
     atom   21 type  2   force =     0.00000000    0.00000000    0.00000000
     atom   22 type  2   force =     0.00000000    0.00000000    0.00000000
     The SCF correction term to forces
     atom    1 type  1   force =     0.00000068    0.00000000   -0.00000112
     atom    2 type  1   force =    -0.00000034    0.00000059   -0.00000112
     atom    3 type  1   force =    -0.00000034   -0.00000059   -0.00000112
     atom    4 type  1   force =    -0.00000068    0.00000000    0.00000112
     atom    5 type  1   force =     0.00000034   -0.00000059    0.00000112
     atom    6 type  1   force =     0.00000034    0.00000059    0.00000112
     atom    7 type  2   force =    -0.00000000   -0.00000000   -0.00000020
     atom    8 type  2   force =    -0.00000015   -0.00000000   -0.00000015
     atom    9 type  2   force =     0.00000007   -0.00000013   -0.00000015
     atom   10 type  2   force =     0.00000007    0.00000013   -0.00000015
     atom   11 type  2   force =    -0.00000000   -0.00000000   -0.00000060
     atom   12 type  2   force =    -0.00000010    0.00000000   -0.00000041
     atom   13 type  2   force =     0.00000005   -0.00000009   -0.00000041
     atom   14 type  2   force =     0.00000005    0.00000009   -0.00000041
     atom   15 type  2   force =     0.00000010    0.00000000    0.00000041
     atom   16 type  2   force =    -0.00000005    0.00000009    0.00000041
     atom   17 type  2   force =    -0.00000005   -0.00000009    0.00000041
     atom   18 type  2   force =    -0.00000000    0.00000000    0.00000060
     atom   19 type  2   force =     0.00000015   -0.00000000    0.00000015
     atom   20 type  2   force =    -0.00000007    0.00000013    0.00000015
     atom   21 type  2   force =    -0.00000007   -0.00000013    0.00000015
     atom   22 type  2   force =     0.00000000    0.00000000    0.00000020

     DFT-D3 dispersion contribution to forces:
     atom    1 type  1   force =    -0.00104079    0.00000000    0.00405408
     atom    2 type  1   force =     0.00052039   -0.00090135    0.00405408
     atom    3 type  1   force =     0.00052039    0.00090135    0.00405408
     atom    4 type  1   force =     0.00104079    0.00000000   -0.00405408
     atom    5 type  1   force =    -0.00052039    0.00090135   -0.00405408
     atom    6 type  1   force =    -0.00052039   -0.00090135   -0.00405408
     atom    7 type  2   force =    -0.00000000   -0.00000000    0.00069603
     atom    8 type  2   force =     0.00017152    0.00000000    0.00086040
     atom    9 type  2   force =    -0.00008576    0.00014854    0.00086040
     atom   10 type  2   force =    -0.00008576   -0.00014854    0.00086040
     atom   11 type  2   force =    -0.00000000    0.00000000    0.00079480
     atom   12 type  2   force =    -0.00036426   -0.00000000    0.00057813
     atom   13 type  2   force =     0.00018213   -0.00031546    0.00057813
     atom   14 type  2   force =     0.00018213    0.00031546    0.00057813
     atom   15 type  2   force =     0.00036426   -0.00000000   -0.00057813
     atom   16 type  2   force =    -0.00018213    0.00031546   -0.00057813
     atom   17 type  2   force =    -0.00018213   -0.00031546   -0.00057813
     atom   18 type  2   force =     0.00000000    0.00000000   -0.00079480
     atom   19 type  2   force =    -0.00017152    0.00000000   -0.00086040
     atom   20 type  2   force =     0.00008576   -0.00014854   -0.00086040
     atom   21 type  2   force =     0.00008576    0.00014854   -0.00086040
     atom   22 type  2   force =     0.00000000   -0.00000000   -0.00069603

     Total force =     0.017348     Total SCF correction =     0.000004

     DFT-D3 dispersion Force =     0.010713


     Computing stress (Cartesian axis) and pressure

          total   stress  (Ry/bohr**3)                   (kbar)     P=        6.73
   0.00005032  -0.00000000   0.00000000            7.40       -0.00        0.00
  -0.00000000   0.00005032   0.00000000           -0.00        7.40        0.00
   0.00000000   0.00000000   0.00003658            0.00        0.00        5.38

     kinetic stress (kbar)  14391.94      0.00     -0.00
                               -0.00  14391.94     -0.00
                               -0.00     -0.00  14382.82

     local   stress (kbar)-384706.57     -0.00     -0.00
                               -0.00-384706.57      0.00
                               -0.00      0.00 372178.86

     nonloc. stress (kbar)    708.67     -0.00      0.00
                               -0.00    708.67      0.00
                                0.00      0.00    721.62

     hartree stress (kbar) 190773.48      0.00      0.00
                                0.00 190773.48     -0.00
                                0.00     -0.00-183207.22

     exc-cor stress (kbar)  -2165.83     -0.00      0.00
                               -0.00  -2165.83      0.00
                                0.00      0.00  -2171.06

     corecor stress (kbar)      0.00      0.00      0.00
                                0.00      0.00      0.00
                                0.00      0.00      0.00

     ewald   stress (kbar) 181012.67     -0.00      0.00
                               -0.00 181012.67      0.00
                                0.00      0.00-201894.62

     hubbard stress (kbar)      0.00      0.00      0.00
                                0.00      0.00      0.00
                                0.00      0.00      0.00

     DFT-D   stress (kbar)     -6.94      0.00      0.00
                                0.00     -6.94     -0.00
                                0.00     -0.00     -5.02

     XDM     stress (kbar)      0.00      0.00      0.00
                                0.00      0.00      0.00
                                0.00      0.00      0.00

     dft-nl  stress (kbar)      0.00      0.00      0.00
                                0.00      0.00      0.00
                                0.00      0.00      0.00

     TS-vdW  stress (kbar)      0.00      0.00      0.00
                                0.00      0.00      0.00
                                0.00      0.00      0.00

     MDB     stress (kbar)      0.00      0.00      0.00
                                0.00      0.00      0.00
                                0.00      0.00      0.00

     3D-RISM stress (kbar)      0.00      0.00      0.00
                                0.00      0.00      0.00
                                0.00      0.00      0.00


     Damped Dynamics Calculation

     Entering Dynamics:    iteration =     1

ATOMIC_POSITIONS (crystal)
Nb               0.1455864180       -0.1455864180       -0.1000583651
Nb               0.1455864180        0.2911728361       -0.1000583651
Nb              -0.2911728361       -0.1455864180       -0.1000583651
Nb              -0.1455864180        0.1455864180        0.1000583651
Nb              -0.1455864180       -0.2911728361        0.1000583651
Nb               0.2911728361        0.1455864180        0.1000583651
F                0.0000000000        0.0000000000       -0.1642570590
F                0.4946664999       -0.4946664999       -0.1449596137
F                0.4946664999       -0.0106670003       -0.1449596137
F                0.0106670003       -0.4946664999       -0.1449596137
F                0.3333333333       -0.3333333333       -0.0537684755
F               -0.1637896255        0.1637896255       -0.0454777599
F               -0.1637896255       -0.3275792511       -0.0454777599
F                0.3275792511        0.1637896255       -0.0454777599
F                0.1637896255       -0.1637896255        0.0454777599
F                0.1637896255        0.3275792511        0.0454777599
F               -0.3275792511       -0.1637896255        0.0454777599
F               -0.3333333333        0.3333333333        0.0537684755
F               -0.4946664999        0.4946664999        0.1449596137
F               -0.4946664999        0.0106670003        0.1449596137
F               -0.0106670003        0.4946664999        0.1449596137
F                0.0000000000        0.0000000000        0.1642570590



     Writing config-only to output data dir ./out/Nb3F8.save/ :
     XML data file
     NEW-OLD atomic charge density approx. for the potential

     negative rho (up, down):  1.201E-05 0.000E+00

     total cpu time spent up to now is       83.7 secs

     per-process dynamical memory:   191.6 Mb

     Self-consistent Calculation

     iteration #  1     ecut=   100.00 Ry     beta= 0.70
     Davidson diagonalization with overlap

---- Real-time Memory Report at c_bands before calling an iterative solver
           329 MiB given to the printing process from OS
           187 MiB allocation reported by mallinfo(arena+hblkhd)
        332422 MiB available memory on the node where the printing process lives
------------------
     ethr =  1.00E-06,  avg # of iterations =  3.0

     Threshold (ethr) on eigenvalues was too large:
     Diagonalizing with lowered threshold

     Davidson diagonalization with overlap

---- Real-time Memory Report at c_bands before calling an iterative solver
           329 MiB given to the printing process from OS
           163 MiB allocation reported by mallinfo(arena+hblkhd)
        333308 MiB available memory on the node where the printing process lives
------------------
     ethr =  4.98E-09,  avg # of iterations =  8.6

     negative rho (up, down):  3.130E-06 0.000E+00

     total cpu time spent up to now is       87.9 secs

     total energy              =   -1450.89646714 Ry
     estimated scf accuracy    <       0.00000954 Ry

     iteration #  2     ecut=   100.00 Ry     beta= 0.70
     Davidson diagonalization with overlap

---- Real-time Memory Report at c_bands before calling an iterative solver
           329 MiB given to the printing process from OS
           173 MiB allocation reported by mallinfo(arena+hblkhd)
        332732 MiB available memory on the node where the printing process lives
------------------
     ethr =  5.02E-09,  avg # of iterations = 11.0

     negative rho (up, down):  2.133E-06 0.000E+00

     total cpu time spent up to now is       89.6 secs

     total energy              =   -1450.89646680 Ry
     estimated scf accuracy    <       0.00001758 Ry

     iteration #  3     ecut=   100.00 Ry     beta= 0.70
     Davidson diagonalization with overlap

---- Real-time Memory Report at c_bands before calling an iterative solver
           329 MiB given to the printing process from OS
           174 MiB allocation reported by mallinfo(arena+hblkhd)
        332895 MiB available memory on the node where the printing process lives
------------------
     ethr =  5.02E-09,  avg # of iterations =  7.6

     negative rho (up, down):  7.943E-07 0.000E+00

     total cpu time spent up to now is       91.1 secs

     total energy              =   -1450.89647081 Ry
     estimated scf accuracy    <       0.00000113 Ry

     iteration #  4     ecut=   100.00 Ry     beta= 0.70
     Davidson diagonalization with overlap

---- Real-time Memory Report at c_bands before calling an iterative solver
           329 MiB given to the printing process from OS
           174 MiB allocation reported by mallinfo(arena+hblkhd)
        332916 MiB available memory on the node where the printing process lives
------------------
     ethr =  5.97E-10,  avg # of iterations =  5.9

     negative rho (up, down):  2.203E-07 0.000E+00

     total cpu time spent up to now is       92.4 secs

     total energy              =   -1450.89647102 Ry
     estimated scf accuracy    <       0.00000007 Ry

     iteration #  5     ecut=   100.00 Ry     beta= 0.70
     Davidson diagonalization with overlap

---- Real-time Memory Report at c_bands before calling an iterative solver
           329 MiB given to the printing process from OS
           175 MiB allocation reported by mallinfo(arena+hblkhd)
        332891 MiB available memory on the node where the printing process lives
------------------
     ethr =  3.49E-11,  avg # of iterations = 12.0

     negative rho (up, down):  3.219E-08 0.000E+00

     total cpu time spent up to now is       94.1 secs

     total energy              =   -1450.89647103 Ry
     estimated scf accuracy    <       0.00000002 Ry

     iteration #  6     ecut=   100.00 Ry     beta= 0.70
     Davidson diagonalization with overlap

---- Real-time Memory Report at c_bands before calling an iterative solver
           329 MiB given to the printing process from OS
           176 MiB allocation reported by mallinfo(arena+hblkhd)
        332908 MiB available memory on the node where the printing process lives
------------------
     ethr =  9.54E-12,  avg # of iterations =  9.9

     total cpu time spent up to now is       95.8 secs

     total energy              =   -1450.89647104 Ry
     estimated scf accuracy    <          8.2E-10 Ry

     iteration #  7     ecut=   100.00 Ry     beta= 0.70
     Davidson diagonalization with overlap

---- Real-time Memory Report at c_bands before calling an iterative solver
           329 MiB given to the printing process from OS
           177 MiB allocation reported by mallinfo(arena+hblkhd)
        332842 MiB available memory on the node where the printing process lives
------------------
     ethr =  4.33E-13,  avg # of iterations = 10.0

     total cpu time spent up to now is       97.3 secs

     total energy              =   -1450.89647104 Ry
     estimated scf accuracy    <          9.2E-11 Ry

     iteration #  8     ecut=   100.00 Ry     beta= 0.70
     Davidson diagonalization with overlap

---- Real-time Memory Report at c_bands before calling an iterative solver
           329 MiB given to the printing process from OS
           178 MiB allocation reported by mallinfo(arena+hblkhd)
        332826 MiB available memory on the node where the printing process lives
------------------
     ethr =  1.00E-13,  avg # of iterations =  6.4

     total cpu time spent up to now is       98.7 secs

     total energy              =   -1450.89647104 Ry
     estimated scf accuracy    <          2.3E-11 Ry

     iteration #  9     ecut=   100.00 Ry     beta= 0.70
     Davidson diagonalization with overlap

---- Real-time Memory Report at c_bands before calling an iterative solver
           329 MiB given to the printing process from OS
           179 MiB allocation reported by mallinfo(arena+hblkhd)
        332789 MiB available memory on the node where the printing process lives
------------------
     ethr =  1.00E-13,  avg # of iterations =  1.4

     total cpu time spent up to now is       99.5 secs

     End of self-consistent calculation

          k = 0.0000 0.0000 0.0000 ( 83541 PWs)   bands (ev):

   -55.5790 -55.5790 -55.3130 -55.3130 -55.3130 -55.3130 -32.7284 -32.7278
   -32.1829 -32.1829 -32.1816 -32.1816 -32.0622 -32.0564 -31.5438 -31.5438
   -31.5427 -31.5427 -31.1196 -31.1195 -30.8908 -30.8908 -30.8906 -30.8906
   -25.2031 -25.1874 -24.5778 -24.5740 -24.5565 -24.4761 -24.4042 -24.4042
   -24.3574 -24.3574 -23.8427 -23.7575 -23.7351 -23.7351 -23.6987 -23.6987
    -7.7701  -7.7701  -7.7606  -7.6933  -7.6933  -7.6573  -7.4571  -7.3476
    -7.1859  -7.0365  -7.0365  -6.9950  -6.9950  -6.8636  -6.7763  -6.7669
    -6.7669  -6.6964  -6.6080  -6.6080  -6.4733  -6.4435  -6.4435  -6.3486
    -6.3486  -6.2604  -5.8011  -5.8011  -5.7895  -5.7895  -5.7617  -5.6165
    -5.6065  -5.5463  -5.4595  -5.4551  -5.4551  -5.4384  -5.4384  -5.0952
    -5.0952  -5.0713  -4.9590  -4.9590  -4.8620  -4.8620  -4.8484  -4.8484
    -1.2093  -1.1503  -0.4590  -0.4590  -0.3972  -0.3972   1.1664   1.1784
     2.2650   2.2650   2.2886   2.2886   2.7134   2.8691   3.1698   3.1698
     3.2014   3.2014   3.4940   3.9424   4.0060   4.0060   4.0764   4.0904
     4.1196   4.1196

     occupation numbers 
     1.0000   1.0000   1.0000   1.0000   1.0000   1.0000   1.0000   1.0000
     1.0000   1.0000   1.0000   1.0000   1.0000   1.0000   1.0000   1.0000
     1.0000   1.0000   1.0000   1.0000   1.0000   1.0000   1.0000   1.0000
     1.0000   1.0000   1.0000   1.0000   1.0000   1.0000   1.0000   1.0000
     1.0000   1.0000   1.0000   1.0000   1.0000   1.0000   1.0000   1.0000
     1.0000   1.0000   1.0000   1.0000   1.0000   1.0000   1.0000   1.0000
     1.0000   1.0000   1.0000   1.0000   1.0000   1.0000   1.0000   1.0000
     1.0000   1.0000   1.0000   1.0000   1.0000   1.0000   1.0000   1.0000
     1.0000   1.0000   1.0000   1.0000   1.0000   1.0000   1.0000   1.0000
     1.0000   1.0000   1.0000   1.0000   1.0000   1.0000   1.0000   1.0000
     1.0000   1.0000   1.0000   1.0000   1.0000   1.0000   1.0000   1.0000
     1.0000   1.0000   1.0000   1.0000   1.0000   1.0000   0.0000   0.0000
     0.0000   0.0000   0.0000   0.0000   0.0000   0.0000   0.0000   0.0000
     0.0000   0.0000   0.0000   0.0000   0.0000   0.0000   0.0000   0.0000
     0.0000   0.0000

          k =-0.0962 0.1667 0.0000 ( 83555 PWs)   bands (ev):

   -55.5757 -55.5756 -55.3166 -55.3166 -55.3130 -55.3130 -32.6852 -32.6846
   -32.1739 -32.1727 -32.1464 -32.1450 -32.0469 -32.0413 -31.5657 -31.5645
   -31.5476 -31.5464 -31.1517 -31.1516 -30.9631 -30.9627 -30.9026 -30.9024
   -25.1606 -25.1469 -24.5963 -24.5919 -24.5300 -24.4440 -24.3869 -24.3566
   -24.3467 -24.3078 -23.8616 -23.7908 -23.7722 -23.7425 -23.7368 -23.7168
    -7.7865  -7.7464  -7.7001  -7.6482  -7.5563  -7.5191  -7.4525  -7.3371
    -7.3133  -7.1822  -7.0843  -7.0567  -6.8843  -6.8500  -6.7762  -6.7478
    -6.6099  -6.5954  -6.5866  -6.5213  -6.5080  -6.4691  -6.4232  -6.3344
    -6.3072  -6.2163  -5.9141  -5.8670  -5.8364  -5.8177  -5.7376  -5.6434
    -5.5999  -5.5602  -5.5231  -5.4599  -5.4449  -5.4219  -5.4089  -5.1865
    -5.1480  -5.1303  -5.0573  -5.0026  -4.8993  -4.8550  -4.8359  -4.7935
    -1.2466  -1.1994  -0.4244  -0.4175  -0.3715  -0.3567   1.1016   1.1135
     2.2693   2.2707   2.2931   2.2958   2.7748   2.9250   3.0407   3.0767
     3.1159   3.1546   3.6994   3.7938   3.8130   3.8209   3.8961   4.1544
     4.2052   4.2134

     occupation numbers 
     1.0000   1.0000   1.0000   1.0000   1.0000   1.0000   1.0000   1.0000
     1.0000   1.0000   1.0000   1.0000   1.0000   1.0000   1.0000   1.0000
     1.0000   1.0000   1.0000   1.0000   1.0000   1.0000   1.0000   1.0000
     1.0000   1.0000   1.0000   1.0000   1.0000   1.0000   1.0000   1.0000
     1.0000   1.0000   1.0000   1.0000   1.0000   1.0000   1.0000   1.0000
     1.0000   1.0000   1.0000   1.0000   1.0000   1.0000   1.0000   1.0000
     1.0000   1.0000   1.0000   1.0000   1.0000   1.0000   1.0000   1.0000
     1.0000   1.0000   1.0000   1.0000   1.0000   1.0000   1.0000   1.0000
     1.0000   1.0000   1.0000   1.0000   1.0000   1.0000   1.0000   1.0000
     1.0000   1.0000   1.0000   1.0000   1.0000   1.0000   1.0000   1.0000
     1.0000   1.0000   1.0000   1.0000   1.0000   1.0000   1.0000   1.0000
     1.0000   1.0000   1.0000   1.0000   1.0000   1.0000   0.0000   0.0000
     0.0000   0.0000   0.0000   0.0000   0.0000   0.0000   0.0000   0.0000
     0.0000   0.0000   0.0000   0.0000   0.0000   0.0000   0.0000   0.0000
     0.0000   0.0000

          k =-0.1925 0.3333 0.0000 ( 83585 PWs)   bands (ev):

   -55.5687 -55.5687 -55.3240 -55.3239 -55.3131 -55.3131 -32.5930 -32.5922
   -32.1452 -32.1440 -32.0609 -32.0594 -32.0119 -32.0066 -31.6171 -31.6159
   -31.5602 -31.5592 -31.2299 -31.2297 -31.1200 -31.1194 -30.9194 -30.9192
   -25.0620 -25.0534 -24.6612 -24.6581 -24.4609 -24.4284 -24.2903 -24.2623
   -24.2353 -24.1785 -23.9443 -23.9056 -23.8727 -23.8434 -23.7423 -23.7374
    -7.8274  -7.7594  -7.6595  -7.5288  -7.5263  -7.3730  -7.2193  -7.2132
    -7.1145  -7.1019  -7.0803  -7.0128  -6.8800  -6.8706  -6.7768  -6.7079
    -6.6566  -6.6134  -6.5731  -6.5721  -6.5280  -6.4729  -6.3815  -6.3173
    -6.2103  -6.1551  -6.0423  -5.9598  -5.9441  -5.8012  -5.7395  -5.6636
    -5.6347  -5.6012  -5.5601  -5.5137  -5.4756  -5.4477  -5.4239  -5.3133
    -5.3106  -5.1827  -5.1231  -5.0833  -4.9326  -4.8795  -4.8251  -4.7370
    -1.3240  -1.3038  -0.3468  -0.3272  -0.3168  -0.2751   0.9686   0.9792
     2.2603   2.2864   2.2895   2.3090   2.7630   2.7998   2.9485   2.9661
     2.9986   3.0417   3.4972   3.5628   3.5747   3.5754   4.0826   4.1116
     4.1785   4.1991

     occupation numbers 
     1.0000   1.0000   1.0000   1.0000   1.0000   1.0000   1.0000   1.0000
     1.0000   1.0000   1.0000   1.0000   1.0000   1.0000   1.0000   1.0000
     1.0000   1.0000   1.0000   1.0000   1.0000   1.0000   1.0000   1.0000
     1.0000   1.0000   1.0000   1.0000   1.0000   1.0000   1.0000   1.0000
     1.0000   1.0000   1.0000   1.0000   1.0000   1.0000   1.0000   1.0000
     1.0000   1.0000   1.0000   1.0000   1.0000   1.0000   1.0000   1.0000
     1.0000   1.0000   1.0000   1.0000   1.0000   1.0000   1.0000   1.0000
     1.0000   1.0000   1.0000   1.0000   1.0000   1.0000   1.0000   1.0000
     1.0000   1.0000   1.0000   1.0000   1.0000   1.0000   1.0000   1.0000
     1.0000   1.0000   1.0000   1.0000   1.0000   1.0000   1.0000   1.0000
     1.0000   1.0000   1.0000   1.0000   1.0000   1.0000   1.0000   1.0000
     1.0000   1.0000   1.0000   1.0000   1.0000   1.0000   0.2035   0.1199
     0.0000   0.0000   0.0000   0.0000   0.0000   0.0000   0.0000   0.0000
     0.0000   0.0000   0.0000   0.0000   0.0000   0.0000   0.0000   0.0000
     0.0000   0.0000

          k = 0.2887-0.5000 0.0000 ( 83612 PWs)   bands (ev):

   -55.5651 -55.5650 -55.3278 -55.3278 -55.3131 -55.3131 -32.5445 -32.5436
   -32.1204 -32.1192 -32.0082 -32.0067 -31.9912 -31.9860 -31.6497 -31.6486
   -31.5723 -31.5713 -31.2757 -31.2754 -31.2074 -31.2065 -30.9252 -30.9250
   -24.9975 -24.9934 -24.7110 -24.7043 -24.4371 -24.4309 -24.1958 -24.1317
   -24.1184 -24.0449 -24.0414 -24.0401 -23.9660 -23.9659 -23.7456 -23.7372
    -7.8583  -7.8552  -7.6885  -7.4947  -7.2951  -7.1964  -7.1437  -7.0601
    -7.0254  -6.9896  -6.9531  -6.9378  -6.9208  -6.9073  -6.9017  -6.7874
    -6.6901  -6.6800  -6.5995  -6.5406  -6.5231  -6.4293  -6.3969  -6.2708
    -6.2132  -6.2086  -6.1856  -6.1006  -5.9463  -5.7890  -5.7354  -5.7023
    -5.6000  -5.5902  -5.5825  -5.5650  -5.5007  -5.4968  -5.4227  -5.3852
    -5.2571  -5.2124  -5.1314  -5.1191  -4.9630  -4.9213  -4.8151  -4.7144
    -1.3628  -1.3603  -0.3003  -0.2895  -0.2763  -0.2347   0.9004   0.9083
     2.2351   2.2660   2.2970   2.3178   2.6469   2.6753   2.8816   2.8971
     3.0297   3.1204   3.3691   3.3935   3.4975   3.5036   4.0181   4.0443
     4.1865   4.1875

     occupation numbers 
     1.0000   1.0000   1.0000   1.0000   1.0000   1.0000   1.0000   1.0000
     1.0000   1.0000   1.0000   1.0000   1.0000   1.0000   1.0000   1.0000
     1.0000   1.0000   1.0000   1.0000   1.0000   1.0000   1.0000   1.0000
     1.0000   1.0000   1.0000   1.0000   1.0000   1.0000   1.0000   1.0000
     1.0000   1.0000   1.0000   1.0000   1.0000   1.0000   1.0000   1.0000
     1.0000   1.0000   1.0000   1.0000   1.0000   1.0000   1.0000   1.0000
     1.0000   1.0000   1.0000   1.0000   1.0000   1.0000   1.0000   1.0000
     1.0000   1.0000   1.0000   1.0000   1.0000   1.0000   1.0000   1.0000
     1.0000   1.0000   1.0000   1.0000   1.0000   1.0000   1.0000   1.0000
     1.0000   1.0000   1.0000   1.0000   1.0000   1.0000   1.0000   1.0000
     1.0000   1.0000   1.0000   1.0000   1.0000   1.0000   1.0000   1.0000
     1.0000   1.0000   1.0000   1.0000   1.0000   1.0000   1.0343   0.9788
     0.0000   0.0000   0.0000   0.0000   0.0000   0.0000   0.0000   0.0000
     0.0000   0.0000   0.0000   0.0000   0.0000   0.0000   0.0000   0.0000
     0.0000   0.0000

          k =-0.0000 0.3333 0.0000 ( 83628 PWs)   bands (ev):

   -55.5705 -55.5704 -55.3221 -55.3221 -55.3131 -55.3131 -32.6152 -32.6144
   -32.1564 -32.1552 -32.0867 -32.0853 -32.0210 -32.0156 -31.6017 -31.6008
   -31.5561 -31.5552 -31.2126 -31.2124 -31.0572 -31.0567 -30.9321 -30.9319
   -25.0891 -25.0789 -24.6408 -24.6400 -24.4645 -24.3842 -24.3765 -24.3313
   -24.2466 -24.2124 -23.9205 -23.8886 -23.7969 -23.7785 -23.7658 -23.7590
    -7.7881  -7.7601  -7.5901  -7.5823  -7.5401  -7.4351  -7.3237  -7.2530
    -7.2274  -7.1623  -7.1273  -7.0280  -6.9904  -6.7559  -6.6836  -6.6679
    -6.6310  -6.5937  -6.5523  -6.5288  -6.4972  -6.4958  -6.3864  -6.3581
    -6.2613  -6.1573  -5.9991  -5.9514  -5.8594  -5.8472  -5.7770  -5.6645
    -5.6172  -5.6052  -5.5470  -5.4572  -5.4395  -5.4237  -5.4191  -5.3403
    -5.2785  -5.2301  -5.1404  -5.0103  -4.8850  -4.8580  -4.8195  -4.7923
    -1.3027  -1.2764  -0.3763  -0.3569  -0.3245  -0.2887   1.0032   1.0145
     2.2614   2.2631   2.3085   2.3120   2.8274   2.8705   2.9099   3.0010
     3.0530   3.0713   3.5551   3.5656   3.6574   3.7185   3.9542   3.9610
     4.1819   4.3675

     occupation numbers 
     1.0000   1.0000   1.0000   1.0000   1.0000   1.0000   1.0000   1.0000
     1.0000   1.0000   1.0000   1.0000   1.0000   1.0000   1.0000   1.0000
     1.0000   1.0000   1.0000   1.0000   1.0000   1.0000   1.0000   1.0000
     1.0000   1.0000   1.0000   1.0000   1.0000   1.0000   1.0000   1.0000
     1.0000   1.0000   1.0000   1.0000   1.0000   1.0000   1.0000   1.0000
     1.0000   1.0000   1.0000   1.0000   1.0000   1.0000   1.0000   1.0000
     1.0000   1.0000   1.0000   1.0000   1.0000   1.0000   1.0000   1.0000
     1.0000   1.0000   1.0000   1.0000   1.0000   1.0000   1.0000   1.0000
     1.0000   1.0000   1.0000   1.0000   1.0000   1.0000   1.0000   1.0000
     1.0000   1.0000   1.0000   1.0000   1.0000   1.0000   1.0000   1.0000
     1.0000   1.0000   1.0000   1.0000   1.0000   1.0000   1.0000   1.0000
     1.0000   1.0000   1.0000   1.0000   1.0000   1.0000   0.0265   0.0112
     0.0000   0.0000   0.0000   0.0000   0.0000   0.0000   0.0000   0.0000
     0.0000   0.0000   0.0000   0.0000   0.0000   0.0000   0.0000   0.0000
     0.0000   0.0000

          k =-0.0962 0.5000 0.0000 ( 83565 PWs)   bands (ev):

[...]
     atom    4 type  1   force =     0.37125450   -0.00000000    0.05531888
     atom    5 type  1   force =    -0.18562725    0.32151583    0.05531888
     atom    6 type  1   force =    -0.18562725   -0.32151583    0.05531888
     atom    7 type  2   force =     0.00000000   -0.00000000    1.51008614
     atom    8 type  2   force =    -0.58600390   -0.00000000    0.96413749
     atom    9 type  2   force =     0.29300195   -0.50749426    0.96413749
     atom   10 type  2   force =     0.29300195    0.50749426    0.96413749
     atom   11 type  2   force =    -0.00000000   -0.00000000   -1.08662760
     atom   12 type  2   force =     0.77351244   -0.00000000   -1.18402606
     atom   13 type  2   force =    -0.38675622    0.66988142   -1.18402606
     atom   14 type  2   force =    -0.38675622   -0.66988142   -1.18402606
     atom   15 type  2   force =    -0.77351244    0.00000000    1.18402606
     atom   16 type  2   force =     0.38675622   -0.66988142    1.18402606
     atom   17 type  2   force =     0.38675622    0.66988142    1.18402606
     atom   18 type  2   force =     0.00000000   -0.00000000    1.08662760
     atom   19 type  2   force =     0.58600390    0.00000000   -0.96413749
     atom   20 type  2   force =    -0.29300195    0.50749426   -0.96413749
     atom   21 type  2   force =    -0.29300195   -0.50749426   -0.96413749
     atom   22 type  2   force =    -0.00000000   -0.00000000   -1.51008614
     The ionic contribution  to forces
     atom    1 type  1   force =     7.36826264    0.00000000  -86.06366423
     atom    2 type  1   force =    -3.68413132    6.38110263  -86.06366423
     atom    3 type  1   force =    -3.68413132   -6.38110263  -86.06366423
     atom    4 type  1   force =    -7.36826264   -0.00000000   86.06366423
     atom    5 type  1   force =     3.68413132   -6.38110263   86.06366423
     atom    6 type  1   force =     3.68413132    6.38110263   86.06366423
     atom    7 type  2   force =     0.00000000    0.00000000  -89.49737833
     atom    8 type  2   force =     6.66034174   -0.00000000  -76.68354278
     atom    9 type  2   force =    -3.33017087    5.76802514  -76.68354278
     atom   10 type  2   force =    -3.33017087   -5.76802514  -76.68354278
     atom   11 type  2   force =     0.00000000    0.00000000  -12.02573601
     atom   12 type  2   force =    -9.57122629   -0.00000000   -9.62098914
     atom   13 type  2   force =     4.78561315   -8.28892511   -9.62098914
     atom   14 type  2   force =     4.78561315    8.28892511   -9.62098914
     atom   15 type  2   force =     9.57122629   -0.00000000    9.62098914
     atom   16 type  2   force =    -4.78561315    8.28892511    9.62098914
     atom   17 type  2   force =    -4.78561315   -8.28892511    9.62098914
     atom   18 type  2   force =    -0.00000000   -0.00000000   12.02573601
     atom   19 type  2   force =    -6.66034174    0.00000000   76.68354278
     atom   20 type  2   force =     3.33017087   -5.76802514   76.68354278
     atom   21 type  2   force =     3.33017087    5.76802514   76.68354278
     atom   22 type  2   force =    -0.00000000   -0.00000000   89.49737833
     The local contribution  to forces
     atom    1 type  1   force =    -6.99597904    0.00000000   86.11535394
     atom    2 type  1   force =     3.49798952   -6.05869557   86.11535394
     atom    3 type  1   force =     3.49798952    6.05869557   86.11535394
     atom    4 type  1   force =     6.99597904   -0.00000000  -86.11535394
     atom    5 type  1   force =    -3.49798952    6.05869557  -86.11535394
     atom    6 type  1   force =    -3.49798952   -6.05869557  -86.11535394
     atom    7 type  2   force =    -0.00000000    0.00000000   87.98662184
     atom    8 type  2   force =    -6.07450791    0.00000000   75.71857164
     atom    9 type  2   force =     3.03725396   -5.26067817   75.71857164
     atom   10 type  2   force =     3.03725396    5.26067817   75.71857164
     atom   11 type  2   force =     0.00000000   -0.00000000   13.11169090
     atom   12 type  2   force =     8.79806312   -0.00000000   10.80446131
     atom   13 type  2   force =    -4.39903156    7.61934616   10.80446131
     atom   14 type  2   force =    -4.39903156   -7.61934616   10.80446131
     atom   15 type  2   force =    -8.79806312    0.00000000  -10.80446131
     atom   16 type  2   force =     4.39903156   -7.61934616  -10.80446131
     atom   17 type  2   force =     4.39903156    7.61934616  -10.80446131
     atom   18 type  2   force =    -0.00000000    0.00000000  -13.11169090
     atom   19 type  2   force =     6.07450791   -0.00000000  -75.71857164
     atom   20 type  2   force =    -3.03725396    5.26067817  -75.71857164
     atom   21 type  2   force =    -3.03725396   -5.26067817  -75.71857164
     atom   22 type  2   force =    -0.00000000   -0.00000000  -87.98662184
     The core correction contribution to forces
     atom    1 type  1   force =     0.00000000    0.00000000    0.00000000
     atom    2 type  1   force =     0.00000000    0.00000000    0.00000000
     atom    3 type  1   force =     0.00000000    0.00000000    0.00000000
     atom    4 type  1   force =     0.00000000    0.00000000    0.00000000
     atom    5 type  1   force =     0.00000000    0.00000000    0.00000000
     atom    6 type  1   force =     0.00000000    0.00000000    0.00000000
     atom    7 type  2   force =     0.00000000    0.00000000    0.00000000
     atom    8 type  2   force =     0.00000000    0.00000000    0.00000000
     atom    9 type  2   force =     0.00000000    0.00000000    0.00000000
     atom   10 type  2   force =     0.00000000    0.00000000    0.00000000
     atom   11 type  2   force =     0.00000000    0.00000000    0.00000000
     atom   12 type  2   force =     0.00000000    0.00000000    0.00000000
     atom   13 type  2   force =     0.00000000    0.00000000    0.00000000
     atom   14 type  2   force =     0.00000000    0.00000000    0.00000000
     atom   15 type  2   force =     0.00000000    0.00000000    0.00000000
     atom   16 type  2   force =     0.00000000    0.00000000    0.00000000
     atom   17 type  2   force =     0.00000000    0.00000000    0.00000000
     atom   18 type  2   force =     0.00000000    0.00000000    0.00000000
     atom   19 type  2   force =     0.00000000    0.00000000    0.00000000
     atom   20 type  2   force =     0.00000000    0.00000000    0.00000000
     atom   21 type  2   force =     0.00000000    0.00000000    0.00000000
     atom   22 type  2   force =     0.00000000    0.00000000    0.00000000
     The Hubbard contrib.    to forces
     atom    1 type  1   force =     0.00000000    0.00000000    0.00000000
     atom    2 type  1   force =     0.00000000    0.00000000    0.00000000
     atom    3 type  1   force =     0.00000000    0.00000000    0.00000000
     atom    4 type  1   force =     0.00000000    0.00000000    0.00000000
     atom    5 type  1   force =     0.00000000    0.00000000    0.00000000
     atom    6 type  1   force =     0.00000000    0.00000000    0.00000000
     atom    7 type  2   force =     0.00000000    0.00000000    0.00000000
     atom    8 type  2   force =     0.00000000    0.00000000    0.00000000
     atom    9 type  2   force =     0.00000000    0.00000000    0.00000000
     atom   10 type  2   force =     0.00000000    0.00000000    0.00000000
     atom   11 type  2   force =     0.00000000    0.00000000    0.00000000
     atom   12 type  2   force =     0.00000000    0.00000000    0.00000000
     atom   13 type  2   force =     0.00000000    0.00000000    0.00000000
     atom   14 type  2   force =     0.00000000    0.00000000    0.00000000
     atom   15 type  2   force =     0.00000000    0.00000000    0.00000000
     atom   16 type  2   force =     0.00000000    0.00000000    0.00000000
     atom   17 type  2   force =     0.00000000    0.00000000    0.00000000
     atom   18 type  2   force =     0.00000000    0.00000000    0.00000000
     atom   19 type  2   force =     0.00000000    0.00000000    0.00000000
     atom   20 type  2   force =     0.00000000    0.00000000    0.00000000
     atom   21 type  2   force =     0.00000000    0.00000000    0.00000000
     atom   22 type  2   force =     0.00000000    0.00000000    0.00000000
     The SCF correction term to forces
     atom    1 type  1   force =     0.00000031   -0.00000000   -0.00000049
     atom    2 type  1   force =    -0.00000015    0.00000027   -0.00000049
     atom    3 type  1   force =    -0.00000015   -0.00000027   -0.00000049
     atom    4 type  1   force =    -0.00000031    0.00000000    0.00000049
     atom    5 type  1   force =     0.00000015   -0.00000027    0.00000049
     atom    6 type  1   force =     0.00000015    0.00000027    0.00000049
     atom    7 type  2   force =    -0.00000000   -0.00000000   -0.00000060
     atom    8 type  2   force =     0.00000016    0.00000000   -0.00000057
     atom    9 type  2   force =    -0.00000008    0.00000014   -0.00000057
     atom   10 type  2   force =    -0.00000008   -0.00000014   -0.00000057
     atom   11 type  2   force =     0.00000000    0.00000000    0.00000024
     atom   12 type  2   force =    -0.00000014    0.00000000    0.00000020
     atom   13 type  2   force =     0.00000007   -0.00000013    0.00000020
     atom   14 type  2   force =     0.00000007    0.00000013    0.00000020
     atom   15 type  2   force =     0.00000014   -0.00000000   -0.00000020
     atom   16 type  2   force =    -0.00000007    0.00000013   -0.00000020
     atom   17 type  2   force =    -0.00000007   -0.00000013   -0.00000020
     atom   18 type  2   force =     0.00000000   -0.00000000   -0.00000024
     atom   19 type  2   force =    -0.00000016    0.00000000    0.00000057
     atom   20 type  2   force =     0.00000008   -0.00000014    0.00000057
     atom   21 type  2   force =     0.00000008    0.00000014    0.00000057
     atom   22 type  2   force =     0.00000000    0.00000000    0.00000060

     DFT-D3 dispersion contribution to forces:
     atom    1 type  1   force =    -0.00102893    0.00000000    0.00362905
     atom    2 type  1   force =     0.00051446   -0.00089108    0.00362905
     atom    3 type  1   force =     0.00051446    0.00089108    0.00362905
     atom    4 type  1   force =     0.00102893    0.00000000   -0.00362905
     atom    5 type  1   force =    -0.00051446    0.00089108   -0.00362905
     atom    6 type  1   force =    -0.00051446   -0.00089108   -0.00362905
     atom    7 type  2   force =    -0.00000000   -0.00000000    0.00067020
     atom    8 type  2   force =     0.00017065    0.00000000    0.00083444
     atom    9 type  2   force =    -0.00008532    0.00014778    0.00083444
     atom   10 type  2   force =    -0.00008532   -0.00014778    0.00083444
     atom   11 type  2   force =    -0.00000000    0.00000000    0.00067206
     atom   12 type  2   force =    -0.00034867   -0.00000000    0.00055356
     atom   13 type  2   force =     0.00017434   -0.00030196    0.00055356
     atom   14 type  2   force =     0.00017434    0.00030196    0.00055356
     atom   15 type  2   force =     0.00034867   -0.00000000   -0.00055356
     atom   16 type  2   force =    -0.00017434    0.00030196   -0.00055356
     atom   17 type  2   force =    -0.00017434   -0.00030196   -0.00055356
     atom   18 type  2   force =     0.00000000    0.00000000   -0.00067206
     atom   19 type  2   force =    -0.00017065    0.00000000   -0.00083444
     atom   20 type  2   force =     0.00008532   -0.00014778   -0.00083444
     atom   21 type  2   force =     0.00008532    0.00014778   -0.00083444
     atom   22 type  2   force =     0.00000000   -0.00000000   -0.00067020

     Total force =     0.000003     Total SCF correction =     0.000002

     DFT-D3 dispersion Force =     0.009700
     SCF correction compared to forces is large: reduce conv_thr to get better values


     Computing stress (Cartesian axis) and pressure

          total   stress  (Ry/bohr**3)                   (kbar)     P=        4.02
   0.00004142   0.00000000   0.00000000            6.09        0.00        0.00
   0.00000000   0.00004142  -0.00000000            0.00        6.09       -0.00
   0.00000000  -0.00000000  -0.00000085            0.00       -0.00       -0.12

     kinetic stress (kbar)  14391.33     -0.00      0.00
                               -0.00  14391.33      0.00
                               -0.00     -0.00  14368.13

     local   stress (kbar)-370737.45      0.00     -0.00
                                0.00-370737.45     -0.00
                               -0.00     -0.00 357920.06

     nonloc. stress (kbar)    708.80     -0.00      0.00
                               -0.00    708.80     -0.00
                                0.00      0.00    725.06

     hartree stress (kbar) 183810.37     -0.00     -0.00
                               -0.00 183810.37     -0.00
                               -0.00     -0.00-176126.09

     exc-cor stress (kbar)  -2165.27     -0.00     -0.00
                               -0.00  -2165.27      0.00
                               -0.00      0.00  -2170.35

     corecor stress (kbar)      0.00      0.00      0.00
                                0.00      0.00      0.00
                                0.00      0.00      0.00

     ewald   stress (kbar) 174005.05      0.00      0.00
                                0.00 174005.05     -0.00
                                0.00     -0.00-194712.16

     hubbard stress (kbar)      0.00      0.00      0.00
                                0.00      0.00      0.00
                                0.00      0.00      0.00

     DFT-D   stress (kbar)     -6.75      0.00      0.00
                                0.00     -6.75     -0.00
                                0.00     -0.00     -4.77

     XDM     stress (kbar)      0.00      0.00      0.00
                                0.00      0.00      0.00
                                0.00      0.00      0.00

     dft-nl  stress (kbar)      0.00      0.00      0.00
                                0.00      0.00      0.00
                                0.00      0.00      0.00

     TS-vdW  stress (kbar)      0.00      0.00      0.00
                                0.00      0.00      0.00
                                0.00      0.00      0.00

     MDB     stress (kbar)      0.00      0.00      0.00
                                0.00      0.00      0.00
                                0.00      0.00      0.00

     3D-RISM stress (kbar)      0.00      0.00      0.00
                                0.00      0.00      0.00
                                0.00      0.00      0.00


     Damped Dynamics: convergence achieved in  36 steps

     End of damped dynamics calculation

     Final energy =   -1450.8989289995 Ry

Begin final coordinates
     new unit-cell volume =   4949.58336 a.u.^3 (   733.45258 Ang^3 )
     density =      1.95024 g/cm^3

CELL_PARAMETERS (angstrom)
   5.112458790   2.951679459   0.000000000
  -5.112458790   2.951679459   0.000000000
   0.000000000   0.000000000  24.302056867

ATOMIC_POSITIONS (crystal)
Nb               0.1456228793       -0.1456228793       -0.1038898805
Nb               0.1456228793        0.2912457585       -0.1038898805
Nb              -0.2912457585       -0.1456228793       -0.1038898805
Nb              -0.1456228793        0.1456228793        0.1038898805
Nb              -0.1456228793       -0.2912457585        0.1038898805
Nb               0.2912457585        0.1456228793        0.1038898805
F                0.0000000000       -0.0000000000       -0.1685835876
F                0.4930599107       -0.4930599107       -0.1492724126
F                0.4930599107       -0.0138801786       -0.1492724126
F                0.0138801786       -0.4930599107       -0.1492724126
F                0.3333333333       -0.3333333333       -0.0572150677
F               -0.1618398854        0.1618398854       -0.0486575666
F               -0.1618398854       -0.3236797708       -0.0486575666
F                0.3236797708        0.1618398854       -0.0486575666
F                0.1618398854       -0.1618398854        0.0486575666
F                0.1618398854        0.3236797708        0.0486575666
F               -0.3236797708       -0.1618398854        0.0486575666
F               -0.3333333333        0.3333333333        0.0572150677
F               -0.4930599107        0.4930599107        0.1492724126
F               -0.4930599107        0.0138801786        0.1492724126
F               -0.0138801786        0.4930599107        0.1492724126
F                0.0000000000       -0.0000000000        0.1685835876
End final coordinates



     Writing all to output data dir ./out/Nb3F8.save/ :
     XML data file, charge density, pseudopotentials, collected wavefunctions

     init_run     :      1.99s CPU      2.11s WALL (       1 calls)
     electrons    :    436.89s CPU    516.06s WALL (      37 calls)
     update_pot   :    123.77s CPU    162.71s WALL (      36 calls)
     forces       :      9.11s CPU     10.80s WALL (      37 calls)
     force_dftd3  :      0.92s CPU      1.00s WALL (      37 calls)
     stress       :     75.84s CPU     78.60s WALL (      37 calls)
     stres_dftd3  :      0.67s CPU      0.75s WALL (      37 calls)

     Called by init_run:
     wfcinit      :      1.06s CPU      1.12s WALL (       1 calls)
     wfcinit:wfcr :      1.02s CPU      1.08s WALL (       1 calls)
     potinit      :      0.06s CPU      0.06s WALL (       1 calls)
     hinit0       :      0.68s CPU      0.68s WALL (       1 calls)

     Called by electrons:
     c_bands      :    379.26s CPU    388.58s WALL (     341 calls)
     sum_band     :     31.95s CPU     33.33s WALL (     341 calls)
     v_of_rho     :     12.81s CPU     14.21s WALL (     346 calls)
     v_h          :      0.99s CPU      1.16s WALL (     346 calls)
     v_xc         :     11.81s CPU     13.05s WALL (     346 calls)
     mix_rho      :      3.18s CPU      3.54s WALL (     341 calls)
     energy_dftd3 :      0.38s CPU      0.39s WALL (      37 calls)

     Called by c_bands:
     init_us_2    :      9.77s CPU     10.11s WALL (     683 calls)
     cegterg      :    293.26s CPU    300.82s WALL (     341 calls)

     Called by sum_band:
     sum_band:wei :      0.69s CPU      0.71s WALL (     341 calls)
     sum_band:loo :     26.46s CPU     27.04s WALL (     341 calls)
     sum_band:buf :      0.00s CPU      0.00s WALL (     341 calls)
     sum_band:ini :      5.22s CPU      5.41s WALL (     341 calls)

     Called by *egterg:
     cdiaghg      :     32.96s CPU     33.41s WALL (    2138 calls)
     cegterg:over :     30.10s CPU     30.59s WALL (    1865 calls)
     cegterg:upda :     20.35s CPU     21.19s WALL (    1865 calls)
     cegterg:last :     25.05s CPU     25.45s WALL (     729 calls)
     h_psi        :    167.66s CPU    172.21s WALL (    2207 calls)
     g_psi        :      0.76s CPU      0.78s WALL (    1865 calls)

     Called by h_psi:
     h_psi:calbec :     27.46s CPU     27.92s WALL (    2207 calls)
     vloc_psi     :    111.22s CPU    113.44s WALL (    2207 calls)
     add_vuspsi   :     25.61s CPU     26.06s WALL (    2207 calls)

     General routines
     calbec       :     96.77s CPU     97.92s WALL (    2427 calls)
     fft          :      5.34s CPU      6.42s WALL (    3787 calls)
     ffts         :      0.93s CPU      1.09s WALL (     341 calls)
     fftw         :    119.00s CPU    121.33s WALL (  248032 calls)
     davcio       :      0.02s CPU      1.68s WALL (     140 calls)

     Parallel routines

     PWSCF        :    654.59s CPU    827.38s WALL


   This run was terminated on:  12:32:27   7May2025            

=------------------------------------------------------------------------------=
   JOB DONE.
=------------------------------------------------------------------------------=
