
     Program PHONON v.7.3.1 starts on  7May2025 at 22:46:34 

     This program is part of the open-source Quantum ESPRESSO suite
     for quantum simulation of materials; please cite
         "P. Giannozzi et al., J. Phys.:Condens. Matter 21 395502 (2009);
         "P. Giannozzi et al., J. Phys.:Condens. Matter 29 465901 (2017);
         "P. Giannozzi et al., J. Chem. Phys. 152 154105 (2020);
          URL http://www.quantum-espresso.org", 
     in publications or presentations arising from this work. More details at
     http://www.quantum-espresso.org/quote

     Parallel version (MPI & OpenMP), running on     384 processor cores
     Number of MPI processes:               384
     Threads/MPI process:                     1

     MPI processes distributed on     2 nodes
     340634 MiB available memory on the printing compute node when the environment starts

     Waiting for input...
     Reading input from standard input
     Run is not recoverable starting from scratch

     Reading xml data from directory:

     ./out/Nb3F8.save/

     K-points division:     npool     =      12
     R & G space division:  proc/nbgrp/npool/nimage =      32
     Subspace diagonalization in iterative solution of the eigenvalue problem:
     a serial algorithm will be used


     IMPORTANT: XC functional enforced from input :
     Exchange-correlation= PBE
                           (   1   4   3   4   0   0   0)
     Any further DFT definition will be discarded
     Please, verify this is what you really want


     Parallelization info
     --------------------
     sticks:   dense  smooth     PW     G-vecs:    dense   smooth      PW
     Min         107     107     28                20893    20893    2906
     Max         108     108     29                20918    20918    2929
     Sum        3427    3427    925               668819   668819   93523

     Using Slab Decomposition

     Message from routine divide_et_impera:
     suboptimal parallelization: some nodes have no k-points
     Reading collected, re-writing distributed wavefunctions in ./out/


     Dynamical matrices for ( 2, 2, 1)  uniform grid of q-points
     (   2 q-points):
       N         xq(1)         xq(2)         xq(3) 
       1   0.000000000   0.000000000   0.000000000
       2   0.288675135  -0.500000000   0.000000000

     Number and degeneracy of irreps per q-point
       N         xq(1)         xq(2)         xq(3)   N irreps
       1   0.000000000   0.000000000   0.000000000      22
        1   1   1   1   1   1   1   1   1   1   1   2   2   2   2   2   2   2
   2   2   2   2
       2   0.288675135  -0.500000000   0.000000000      33
     No degeneracy

     Saving dvscf to file. Distribute only q points, not irreducible representations.

     Calculation of q =    0.0000000   0.0000000   0.0000000

     Nb3F8                                                                      

     bravais-lattice index     =            0
     lattice parameter (alat)  =      11.1557  a.u.
     unit-cell volume          =    4949.5834 (a.u.)^3
     number of atoms/cell      =           11
     number of atomic types    =            2
     kinetic-energy cut-off    =     100.0000  Ry
     charge density cut-off    =     400.0000  Ry
     convergence threshold     =      1.0E-16
     beta                      =       0.7000
     number of iterations used =            4
     Exchange-correlation= PBE
                           (   1   4   3   4   0   0   0)


     celldm(1)=   11.15573  celldm(2)=    0.00000  celldm(3)=    0.00000
     celldm(4)=    0.00000  celldm(5)=    0.00000  celldm(6)=    0.00000

     crystal axes: (cart. coord. in units of alat)
               a(1) = (  0.8660  0.5000  0.0000 )  
               a(2) = ( -0.8660  0.5000  0.0000 )  
               a(3) = (  0.0000  0.0000  4.1166 )  

     reciprocal axes: (cart. coord. in units 2 pi/alat)
               b(1) = (  0.5774  1.0000 -0.0000 )  
               b(2) = ( -0.5774  1.0000  0.0000 )  
               b(3) = (  0.0000 -0.0000  0.2429 )  


     Atoms inside the unit cell: 

     Cartesian axes

     site n.  atom      mass           positions (alat units)
        1  Nb     92.9064   tau(    1) = (    0.25205    0.00000   -0.42844  )
        2  Nb     92.9064   tau(    2) = (   -0.12602    0.21828   -0.42844  )
        3  Nb     92.9064   tau(    3) = (   -0.12602   -0.21828   -0.42844  )
        4  F      18.9984   tau(    4) = (    0.00000    0.00000   -0.69498  )
        5  F      18.9984   tau(    5) = (    0.85387    0.00000   -0.61518  )
        6  F      18.9984   tau(    6) = (    0.43909    0.23947   -0.61518  )
        7  F      18.9984   tau(    7) = (    0.43909   -0.23947   -0.61518  )
        8  F      18.9984   tau(    8) = (    0.57735   -0.00000   -0.23496  )
        9  F      18.9984   tau(    9) = (   -0.27723   -0.00000   -0.19874  )
       10  F      18.9984   tau(   10) = (    0.13862   -0.24009   -0.19874  )
       11  F      18.9984   tau(   11) = (    0.13862    0.24009   -0.19874  )

     Computing dynamical matrix for 
                    q = (   0.0000000   0.0000000   0.0000000 )

      7 Sym.Ops. (with q -> -q+G )


     G cutoff = 1260.9456  (  20905 G-vectors)     FFT grid: ( 72, 72,300)

     number of k points=     7  Gaussian smearing, width (Ry)=  0.0037

     PseudoPot. # 1 for Nb read from file:
     /scratch-shared/mroesner/Nb3X8_cDFPT/pp/Nb_ONCV_PBE-1.2.upf
     MD5 check sum: 2c750ac0b6910ff4cf0ab5f6c4124a64
     Pseudo is Norm-conserving, Zval = 13.0
     Generated using ONCVPSP code by D. R. Hamann
     Using radial grid of  602 points,  6 beta functions with: 
                l(1) =   0
                l(2) =   0
                l(3) =   1
                l(4) =   1
                l(5) =   2
                l(6) =   2

     PseudoPot. # 2 for F  read from file:
     /scratch-shared/mroesner/Nb3X8_cDFPT/pp/F_ONCV_PBE-1.2.upf
     MD5 check sum: 1d8275f47d602dd53cad6bcdc0eda7dc
     Pseudo is Norm-conserving, Zval =  7.0
     Generated using ONCVPSP code by D. R. Hamann
     Using radial grid of  602 points,  4 beta functions with: 
                l(1) =   0
                l(2) =   0
                l(3) =   1
                l(4) =   1

     Mode symmetry, C_3v (3m)   point group:


     Atomic displacements:
     There are   22 irreducible representations

     Representation     1      1 modes -  To be done

     Representation     2      1 modes -  To be done

     Representation     3      1 modes -  To be done

     Representation     4      1 modes -  To be done

     Representation     5      1 modes -  To be done

     Representation     6      1 modes -  To be done

     Representation     7      1 modes -  To be done

     Representation     8      1 modes -  To be done

     Representation     9      1 modes -  To be done

     Representation    10      1 modes -  To be done

     Representation    11      1 modes -  To be done

     Representation    12      2 modes -  To be done

     Representation    13      2 modes -  To be done

     Representation    14      2 modes -  To be done

     Representation    15      2 modes -  To be done

     Representation    16      2 modes -  To be done

     Representation    17      2 modes -  To be done

     Representation    18      2 modes -  To be done

     Representation    19      2 modes -  To be done

     Representation    20      2 modes -  To be done

     Representation    21      2 modes -  To be done

     Representation    22      2 modes -  To be done



     Alpha used in Ewald sum =   2.8000

     Reading Grimme-D3 Hessian from file: ./out/Nb3F8.hess

     Number of cells replicated along each semiaxis:   10  10   3
     Number of cells in the supercell:      3087
     Number of atoms in the supercell:     33957
     Hessian allocation dimension:   3361743

     Grimme-D3 Hessian read 

     Computing dynamical matrix for q:     0.000000    0.000000    0.000000

     Writing Hessian on file dynamical.false.dat

     Dynamical matrix computed
     PHONON       :      6.98s CPU     95.60s WALL



     Representation #   1 mode #   1

     Self-consistent Calculation

     Pert. #  1: Fermi energy shift (Ry) =    -2.4312E-01     0.0000E+00

      iter #   1 total cpu time :   128.3 secs   av.it.:   7.7
      thresh= 1.000E-02 alpha_mix =  0.700 |ddv_scf|^2 =  7.950E-08

     Pert. #  1: Fermi energy shift (Ry) =     2.2121E-01     0.0000E+00

      iter #   2 total cpu time :   242.3 secs   av.it.:  17.4
      thresh= 2.819E-05 alpha_mix =  0.700 |ddv_scf|^2 =  3.521E-08

     Pert. #  1: Fermi energy shift (Ry) =    -3.3884E-02     0.0000E+00

      iter #   3 total cpu time :   304.6 secs   av.it.:  17.0
      thresh= 1.876E-05 alpha_mix =  0.700 |ddv_scf|^2 =  1.060E-08

     Pert. #  1: Fermi energy shift (Ry) =     6.0351E-03     0.0000E+00

      iter #   4 total cpu time :   346.3 secs   av.it.:  15.9
      thresh= 1.030E-05 alpha_mix =  0.700 |ddv_scf|^2 =  3.035E-10

     Pert. #  1: Fermi energy shift (Ry) =     2.2198E-02     0.0000E+00

      iter #   5 total cpu time :   402.6 secs   av.it.:  17.3
      thresh= 1.742E-06 alpha_mix =  0.700 |ddv_scf|^2 =  3.916E-11

     Pert. #  1: Fermi energy shift (Ry) =     1.1637E-02     0.0000E+00

      iter #   6 total cpu time :   432.9 secs   av.it.:  17.4
      thresh= 6.258E-07 alpha_mix =  0.700 |ddv_scf|^2 =  8.082E-12

     Pert. #  1: Fermi energy shift (Ry) =     1.5987E-02     0.0000E+00

      iter #   7 total cpu time :   457.9 secs   av.it.:  16.9
      thresh= 2.843E-07 alpha_mix =  0.700 |ddv_scf|^2 =  3.468E-13

     Pert. #  1: Fermi energy shift (Ry) =     1.4726E-02     0.0000E+00

      iter #   8 total cpu time :   475.4 secs   av.it.:  17.6
      thresh= 5.889E-08 alpha_mix =  0.700 |ddv_scf|^2 =  1.362E-13

     Pert. #  1: Fermi energy shift (Ry) =     1.5283E-02     0.0000E+00

      iter #   9 total cpu time :   503.8 secs   av.it.:  17.7
      thresh= 3.691E-08 alpha_mix =  0.700 |ddv_scf|^2 =  3.092E-14

     Pert. #  1: Fermi energy shift (Ry) =     1.4991E-02     0.0000E+00

      iter #  10 total cpu time :   532.4 secs   av.it.:  17.1
      thresh= 1.758E-08 alpha_mix =  0.700 |ddv_scf|^2 =  5.874E-15

     Pert. #  1: Fermi energy shift (Ry) =     1.5021E-02     0.0000E+00

      iter #  11 total cpu time :   559.1 secs   av.it.:  16.7
      thresh= 7.664E-09 alpha_mix =  0.700 |ddv_scf|^2 =  1.144E-15

     Pert. #  1: Fermi energy shift (Ry) =     1.5048E-02     0.0000E+00

      iter #  12 total cpu time :   580.1 secs   av.it.:  17.0
      thresh= 3.382E-09 alpha_mix =  0.700 |ddv_scf|^2 =  1.894E-17

     End of self-consistent calculation

     Convergence has been achieved 


     Representation #   2 mode #   2

     Self-consistent Calculation

     Pert. #  1: Fermi energy shift (Ry) =    -4.4984E-02     7.4115E-22

      iter #   1 total cpu time :   747.2 secs   av.it.:   7.7
      thresh= 1.000E-02 alpha_mix =  0.700 |ddv_scf|^2 =  1.356E-07

     Pert. #  1: Fermi energy shift (Ry) =    -1.1559E-01     2.0680E-24

      iter #   2 total cpu time :   819.7 secs   av.it.:  17.1
      thresh= 3.682E-05 alpha_mix =  0.700 |ddv_scf|^2 =  1.940E-07

     Pert. #  1: Fermi energy shift (Ry) =     3.5148E-02     2.4815E-24

      iter #   3 total cpu time :   857.2 secs   av.it.:  15.6
      thresh= 4.405E-05 alpha_mix =  0.700 |ddv_scf|^2 =  1.268E-08

     Pert. #  1: Fermi energy shift (Ry) =     1.7884E-02     7.7548E-26

      iter #   4 total cpu time :   900.6 secs   av.it.:  16.0
      thresh= 1.126E-05 alpha_mix =  0.700 |ddv_scf|^2 =  7.735E-10

     Pert. #  1: Fermi energy shift (Ry) =    -1.1630E-02    -3.2312E-26

      iter #   5 total cpu time :   980.6 secs   av.it.:  16.4
      thresh= 2.781E-06 alpha_mix =  0.700 |ddv_scf|^2 =  2.477E-11

     Pert. #  1: Fermi energy shift (Ry) =    -4.2892E-05    -5.1699E-26

      iter #   6 total cpu time :  1005.1 secs   av.it.:  17.4
      thresh= 4.977E-07 alpha_mix =  0.700 |ddv_scf|^2 =  7.250E-12

     Pert. #  1: Fermi energy shift (Ry) =    -3.0554E-03     3.2312E-26

      iter #   7 total cpu time :  1028.4 secs   av.it.:  17.1
      thresh= 2.693E-07 alpha_mix =  0.700 |ddv_scf|^2 =  5.793E-13

     Pert. #  1: Fermi energy shift (Ry) =    -1.8856E-03    -4.8468E-27

      iter #   8 total cpu time :  1048.4 secs   av.it.:  17.4
      thresh= 7.611E-08 alpha_mix =  0.700 |ddv_scf|^2 =  4.246E-13

     Pert. #  1: Fermi energy shift (Ry) =    -2.1368E-03    -3.2312E-27

      iter #   9 total cpu time :  1065.6 secs   av.it.:  16.1
      thresh= 6.516E-08 alpha_mix =  0.700 |ddv_scf|^2 =  1.664E-14

     Pert. #  1: Fermi energy shift (Ry) =    -2.2179E-03     1.4136E-27

      iter #  10 total cpu time :  1085.2 secs   av.it.:  18.0
      thresh= 1.290E-08 alpha_mix =  0.700 |ddv_scf|^2 =  2.505E-14

     Pert. #  1: Fermi energy shift (Ry) =    -2.1355E-03     1.0097E-27

      iter #  11 total cpu time :  1100.9 secs   av.it.:  16.4
      thresh= 1.583E-08 alpha_mix =  0.700 |ddv_scf|^2 =  8.116E-16

     Pert. #  1: Fermi energy shift (Ry) =    -2.1417E-03     2.0195E-27

      iter #  12 total cpu time :  1119.5 secs   av.it.:  16.6
      thresh= 2.849E-09 alpha_mix =  0.700 |ddv_scf|^2 =  1.816E-17

     End of self-consistent calculation

     Convergence has been achieved 


     Representation #   3 mode #   3

     Self-consistent Calculation

     Pert. #  1: Fermi energy shift (Ry) =     9.9157E-01    -1.4823E-21

      iter #   1 total cpu time :  1284.9 secs   av.it.:   8.0
      thresh= 1.000E-02 alpha_mix =  0.700 |ddv_scf|^2 =  5.992E-07

     Pert. #  1: Fermi energy shift (Ry) =    -8.6702E-01    -4.9631E-24

      iter #   2 total cpu time :  1356.6 secs   av.it.:  16.6
      thresh= 7.741E-05 alpha_mix =  0.700 |ddv_scf|^2 =  8.698E-07

     Pert. #  1: Fermi energy shift (Ry) =    -2.0160E-01    -3.3087E-24

      iter #   3 total cpu time :  1404.3 secs   av.it.:  15.6
      thresh= 9.327E-05 alpha_mix =  0.700 |ddv_scf|^2 =  7.088E-08

     Pert. #  1: Fermi energy shift (Ry) =    -4.9502E-02     1.8612E-24

      iter #   4 total cpu time :  1473.2 secs   av.it.:  15.1
      thresh= 2.662E-05 alpha_mix =  0.700 |ddv_scf|^2 =  1.027E-09

     Pert. #  1: Fermi energy shift (Ry) =    -1.1127E-01     3.1019E-25

      iter #   5 total cpu time :  1519.4 secs   av.it.:  17.3
      thresh= 3.205E-06 alpha_mix =  0.700 |ddv_scf|^2 =  1.326E-10

     Pert. #  1: Fermi energy shift (Ry) =    -9.5114E-02    -5.8161E-26

      iter #   6 total cpu time :  1558.4 secs   av.it.:  16.7
      thresh= 1.151E-06 alpha_mix =  0.700 |ddv_scf|^2 =  1.206E-11

     Pert. #  1: Fermi energy shift (Ry) =    -9.5975E-02     3.8774E-26

      iter #   7 total cpu time :  1591.5 secs   av.it.:  17.6
      thresh= 3.473E-07 alpha_mix =  0.700 |ddv_scf|^2 =  4.006E-12

     Pert. #  1: Fermi energy shift (Ry) =    -9.5987E-02    -5.8161E-26

      iter #   8 total cpu time :  1618.4 secs   av.it.:  16.4
      thresh= 2.001E-07 alpha_mix =  0.700 |ddv_scf|^2 =  3.269E-13

     Pert. #  1: Fermi energy shift (Ry) =    -9.5267E-02    -9.6935E-27

      iter #   9 total cpu time :  1642.2 secs   av.it.:  18.1
      thresh= 5.718E-08 alpha_mix =  0.700 |ddv_scf|^2 =  5.871E-13

     Pert. #  1: Fermi energy shift (Ry) =    -9.5953E-02     3.6351E-27

      iter #  10 total cpu time :  1674.4 secs   av.it.:  16.3
      thresh= 7.662E-08 alpha_mix =  0.700 |ddv_scf|^2 =  7.157E-15

     Pert. #  1: Fermi energy shift (Ry) =    -9.5964E-02    -4.8468E-27

      iter #  11 total cpu time :  1705.3 secs   av.it.:  17.4
      thresh= 8.460E-09 alpha_mix =  0.700 |ddv_scf|^2 =  2.512E-16

     Pert. #  1: Fermi energy shift (Ry) =    -9.5948E-02    -4.8468E-27

      iter #  12 total cpu time :  1730.6 secs   av.it.:  17.3
      thresh= 1.585E-09 alpha_mix =  0.700 |ddv_scf|^2 =  6.938E-17

     End of self-consistent calculation

     Convergence has been achieved 


     Representation #   4 mode #   4

     Self-consistent Calculation

     Pert. #  1: Fermi energy shift (Ry) =    -2.4815E-02    -8.4703E-22

      iter #   1 total cpu time :  1794.0 secs   av.it.:   9.0
      thresh= 1.000E-02 alpha_mix =  0.700 |ddv_scf|^2 =  3.657E-06

     Pert. #  1: Fermi energy shift (Ry) =    -1.5905E-01     3.3087E-23

      iter #   2 total cpu time :  1824.9 secs   av.it.:  16.3
      thresh= 1.912E-04 alpha_mix =  0.700 |ddv_scf|^2 =  1.163E-05

     Pert. #  1: Fermi energy shift (Ry) =    -3.1627E-02     8.2718E-24

      iter #   3 total cpu time :  1864.2 secs   av.it.:  14.6
      thresh= 3.410E-04 alpha_mix =  0.700 |ddv_scf|^2 =  1.689E-08

     Pert. #  1: Fermi energy shift (Ry) =    -3.2934E-02     2.4815E-24

      iter #   4 total cpu time :  1902.0 secs   av.it.:  16.9
      thresh= 1.300E-05 alpha_mix =  0.700 |ddv_scf|^2 =  7.451E-09

     Pert. #  1: Fermi energy shift (Ry) =    -4.6120E-02     3.1019E-25

      iter #   5 total cpu time :  1955.4 secs   av.it.:  15.3
      thresh= 8.632E-06 alpha_mix =  0.700 |ddv_scf|^2 =  4.016E-11

     Pert. #  1: Fermi energy shift (Ry) =    -3.6178E-02    -5.1699E-26

      iter #   6 total cpu time :  1987.2 secs   av.it.:  17.1
      thresh= 6.337E-07 alpha_mix =  0.700 |ddv_scf|^2 =  8.495E-12

     Pert. #  1: Fermi energy shift (Ry) =    -3.7797E-02    -2.5849E-26

      iter #   7 total cpu time :  2008.8 secs   av.it.:  16.0
      thresh= 2.915E-07 alpha_mix =  0.700 |ddv_scf|^2 =  2.713E-13

     Pert. #  1: Fermi energy shift (Ry) =    -3.6765E-02    -4.0390E-27

      iter #   8 total cpu time :  2034.1 secs   av.it.:  17.4
      thresh= 5.209E-08 alpha_mix =  0.700 |ddv_scf|^2 =  9.802E-14

     Pert. #  1: Fermi energy shift (Ry) =    -3.7292E-02    -4.0390E-28

      iter #   9 total cpu time :  2064.2 secs   av.it.:  17.4
      thresh= 3.131E-08 alpha_mix =  0.700 |ddv_scf|^2 =  2.829E-14

     Pert. #  1: Fermi energy shift (Ry) =    -3.7246E-02    -6.4623E-27

      iter #  10 total cpu time :  2086.3 secs   av.it.:  17.1
      thresh= 1.682E-08 alpha_mix =  0.700 |ddv_scf|^2 =  1.722E-14

     Pert. #  1: Fermi energy shift (Ry) =    -3.7183E-02    -1.6156E-27

      iter #  11 total cpu time :  2107.9 secs   av.it.:  16.0
      thresh= 1.312E-08 alpha_mix =  0.700 |ddv_scf|^2 =  1.961E-15

     Pert. #  1: Fermi energy shift (Ry) =    -3.7216E-02    -2.4234E-27

      iter #  12 total cpu time :  2151.2 secs   av.it.:  16.3
      thresh= 4.429E-09 alpha_mix =  0.700 |ddv_scf|^2 =  4.486E-16

     Pert. #  1: Fermi energy shift (Ry) =    -3.7211E-02    -2.4234E-27

      iter #  13 total cpu time :  2170.3 secs   av.it.:  16.6
      thresh= 2.118E-09 alpha_mix =  0.700 |ddv_scf|^2 =  9.741E-19

     End of self-consistent calculation

     Convergence has been achieved 


     Representation #   5 mode #   5

     Self-consistent Calculation

     Pert. #  1: Fermi energy shift (Ry) =     6.9234E-01     0.0000E+00

      iter #   1 total cpu time :  2308.2 secs   av.it.:   7.0
      thresh= 1.000E-02 alpha_mix =  0.700 |ddv_scf|^2 =  1.889E-07

     Pert. #  1: Fermi energy shift (Ry) =    -5.8256E-01     0.0000E+00

      iter #   2 total cpu time :  2344.6 secs   av.it.:  16.9
      thresh= 4.347E-05 alpha_mix =  0.700 |ddv_scf|^2 =  1.523E-07

     Pert. #  1: Fermi energy shift (Ry) =    -2.9407E-03     0.0000E+00

      iter #   3 total cpu time :  2384.6 secs   av.it.:  16.3
      thresh= 3.903E-05 alpha_mix =  0.700 |ddv_scf|^2 =  2.448E-08

     Pert. #  1: Fermi energy shift (Ry) =     4.8402E-03     0.0000E+00

      iter #   4 total cpu time :  2466.0 secs   av.it.:  15.3
      thresh= 1.565E-05 alpha_mix =  0.700 |ddv_scf|^2 =  5.163E-10

     Pert. #  1: Fermi energy shift (Ry) =    -6.5068E-02     0.0000E+00

      iter #   5 total cpu time :  2496.5 secs   av.it.:  17.7
      thresh= 2.272E-06 alpha_mix =  0.700 |ddv_scf|^2 =  1.499E-10

     Pert. #  1: Fermi energy shift (Ry) =    -3.7170E-02     0.0000E+00

      iter #   6 total cpu time :  2518.2 secs   av.it.:  17.3
      thresh= 1.224E-06 alpha_mix =  0.700 |ddv_scf|^2 =  1.825E-11

     Pert. #  1: Fermi energy shift (Ry) =    -4.0206E-02     0.0000E+00

      iter #   7 total cpu time :  2537.4 secs   av.it.:  17.4
      thresh= 4.272E-07 alpha_mix =  0.700 |ddv_scf|^2 =  4.235E-12

     Pert. #  1: Fermi energy shift (Ry) =    -4.0542E-02     0.0000E+00

      iter #   8 total cpu time :  2561.1 secs   av.it.:  16.4
      thresh= 2.058E-07 alpha_mix =  0.700 |ddv_scf|^2 =  3.196E-13

     Pert. #  1: Fermi energy shift (Ry) =    -4.0306E-02     0.0000E+00

      iter #   9 total cpu time :  2585.6 secs   av.it.:  17.9
      thresh= 5.653E-08 alpha_mix =  0.700 |ddv_scf|^2 =  5.607E-13

     Pert. #  1: Fermi energy shift (Ry) =    -4.0359E-02     0.0000E+00

      iter #  10 total cpu time :  2610.3 secs   av.it.:  16.1
      thresh= 7.488E-08 alpha_mix =  0.700 |ddv_scf|^2 =  1.908E-15

     Pert. #  1: Fermi energy shift (Ry) =    -4.0351E-02     0.0000E+00

      iter #  11 total cpu time :  2650.9 secs   av.it.:  17.1
      thresh= 4.368E-09 alpha_mix =  0.700 |ddv_scf|^2 =  3.279E-16

     Pert. #  1: Fermi energy shift (Ry) =    -4.0349E-02     0.0000E+00

      iter #  12 total cpu time :  2718.2 secs   av.it.:  17.3
      thresh= 1.811E-09 alpha_mix =  0.700 |ddv_scf|^2 =  2.452E-17

     End of self-consistent calculation

     Convergence has been achieved 


     Representation #   6 mode #   6

     Self-consistent Calculation

     Pert. #  1: Fermi energy shift (Ry) =     8.1190E-01    -5.2940E-23

      iter #   1 total cpu time :  2807.7 secs   av.it.:   8.0
      thresh= 1.000E-02 alpha_mix =  0.700 |ddv_scf|^2 =  7.067E-07

     Pert. #  1: Fermi energy shift (Ry) =    -5.9164E-01     8.2718E-25

      iter #   2 total cpu time :  2846.3 secs   av.it.:  16.3
      thresh= 8.406E-05 alpha_mix =  0.700 |ddv_scf|^2 =  1.168E-06

     Pert. #  1: Fermi energy shift (Ry) =    -1.4713E-01     4.1359E-25

      iter #   3 total cpu time :  2892.5 secs   av.it.:  15.1
      thresh= 1.081E-04 alpha_mix =  0.700 |ddv_scf|^2 =  5.875E-08

     Pert. #  1: Fermi energy shift (Ry) =    -4.2525E-02    -5.1699E-26

      iter #   4 total cpu time :  2934.7 secs   av.it.:  15.3
      thresh= 2.424E-05 alpha_mix =  0.700 |ddv_scf|^2 =  3.803E-10

     Pert. #  1: Fermi energy shift (Ry) =    -8.9885E-02     2.5849E-26

      iter #   5 total cpu time :  2983.8 secs   av.it.:  18.1
      thresh= 1.950E-06 alpha_mix =  0.700 |ddv_scf|^2 =  4.871E-10

     Pert. #  1: Fermi energy shift (Ry) =    -4.2589E-02    -2.5849E-26

      iter #   6 total cpu time :  3023.8 secs   av.it.:  17.0
      thresh= 2.207E-06 alpha_mix =  0.700 |ddv_scf|^2 =  5.730E-11

     Pert. #  1: Fermi energy shift (Ry) =    -4.7728E-02     1.2925E-26

      iter #   7 total cpu time :  3044.5 secs   av.it.:  16.3
      thresh= 7.570E-07 alpha_mix =  0.700 |ddv_scf|^2 =  1.328E-12

     Pert. #  1: Fermi energy shift (Ry) =    -4.7072E-02    -8.0779E-28

      iter #   8 total cpu time :  3067.0 secs   av.it.:  17.6
      thresh= 1.153E-07 alpha_mix =  0.700 |ddv_scf|^2 =  1.161E-13

     Pert. #  1: Fermi energy shift (Ry) =    -4.7220E-02     1.6156E-27

      iter #   9 total cpu time :  3091.0 secs   av.it.:  17.6
      thresh= 3.408E-08 alpha_mix =  0.700 |ddv_scf|^2 =  6.946E-14

     Pert. #  1: Fermi energy shift (Ry) =    -4.7261E-02     8.0779E-28

      iter #  10 total cpu time :  3114.2 secs   av.it.:  16.7
      thresh= 2.635E-08 alpha_mix =  0.700 |ddv_scf|^2 =  1.419E-15

     Pert. #  1: Fermi energy shift (Ry) =    -4.7281E-02     8.0779E-28

      iter #  11 total cpu time :  3142.4 secs   av.it.:  17.4
      thresh= 3.767E-09 alpha_mix =  0.700 |ddv_scf|^2 =  4.884E-16

     Pert. #  1: Fermi energy shift (Ry) =    -4.7320E-02     8.0779E-28

      iter #  12 total cpu time :  3165.1 secs   av.it.:  17.1
      thresh= 2.210E-09 alpha_mix =  0.700 |ddv_scf|^2 =  1.938E-16

     Pert. #  1: Fermi energy shift (Ry) =    -4.7289E-02     8.0779E-28

      iter #  13 total cpu time :  3242.7 secs   av.it.:  17.1
      thresh= 1.392E-09 alpha_mix =  0.700 |ddv_scf|^2 =  6.918E-18

     End of self-consistent calculation

     Convergence has been achieved 


     Representation #   7 mode #   7

     Self-consistent Calculation

     Pert. #  1: Fermi energy shift (Ry) =    -4.4615E-01     0.0000E+00

      iter #   1 total cpu time :  3451.9 secs   av.it.:   7.1
      thresh= 1.000E-02 alpha_mix =  0.700 |ddv_scf|^2 =  2.548E-07

     Pert. #  1: Fermi energy shift (Ry) =     3.1261E-01     0.0000E+00

      iter #   2 total cpu time :  3505.8 secs   av.it.:  16.6
      thresh= 5.048E-05 alpha_mix =  0.700 |ddv_scf|^2 =  3.998E-07

     Pert. #  1: Fermi energy shift (Ry) =     9.0842E-02     0.0000E+00

      iter #   3 total cpu time :  3546.9 secs   av.it.:  15.3
      thresh= 6.323E-05 alpha_mix =  0.700 |ddv_scf|^2 =  2.641E-08

     Pert. #  1: Fermi energy shift (Ry) =     1.4485E-02     0.0000E+00

      iter #   4 total cpu time :  3576.6 secs   av.it.:  15.3
      thresh= 1.625E-05 alpha_mix =  0.700 |ddv_scf|^2 =  2.452E-10

     Pert. #  1: Fermi energy shift (Ry) =     4.2025E-02     0.0000E+00

      iter #   5 total cpu time :  3611.0 secs   av.it.:  17.4
      thresh= 1.566E-06 alpha_mix =  0.700 |ddv_scf|^2 =  1.434E-10

     Pert. #  1: Fermi energy shift (Ry) =     1.5522E-02     0.0000E+00

      iter #   6 total cpu time :  3638.5 secs   av.it.:  17.4
      thresh= 1.198E-06 alpha_mix =  0.700 |ddv_scf|^2 =  8.462E-11

     Pert. #  1: Fermi energy shift (Ry) =     2.5167E-02     0.0000E+00

      iter #   7 total cpu time :  3658.6 secs   av.it.:  16.7
      thresh= 9.199E-07 alpha_mix =  0.700 |ddv_scf|^2 =  5.287E-12

     Pert. #  1: Fermi energy shift (Ry) =     2.4174E-02     0.0000E+00

      iter #   8 total cpu time :  3683.3 secs   av.it.:  16.9
      thresh= 2.299E-07 alpha_mix =  0.700 |ddv_scf|^2 =  1.289E-13

     Pert. #  1: Fermi energy shift (Ry) =     2.4303E-02     0.0000E+00

      iter #   9 total cpu time :  3710.6 secs   av.it.:  17.7
      thresh= 3.590E-08 alpha_mix =  0.700 |ddv_scf|^2 =  7.616E-14

     Pert. #  1: Fermi energy shift (Ry) =     2.4191E-02     0.0000E+00

      iter #  10 total cpu time :  3737.5 secs   av.it.:  17.4
      thresh= 2.760E-08 alpha_mix =  0.700 |ddv_scf|^2 =  1.196E-14

     Pert. #  1: Fermi energy shift (Ry) =     2.4317E-02     0.0000E+00

      iter #  11 total cpu time :  3773.7 secs   av.it.:  17.1
      thresh= 1.094E-08 alpha_mix =  0.700 |ddv_scf|^2 =  8.256E-17

     End of self-consistent calculation

     Convergence has been achieved 


     Representation #   8 mode #   8

     Self-consistent Calculation

     Pert. #  1: Fermi energy shift (Ry) =    -5.6821E-01     2.1176E-22

      iter #   1 total cpu time :  3864.8 secs   av.it.:   8.6
      thresh= 1.000E-02 alpha_mix =  0.700 |ddv_scf|^2 =  2.796E-07

     Pert. #  1: Fermi energy shift (Ry) =     6.0241E-01    -1.6544E-24

      iter #   2 total cpu time :  3900.3 secs   av.it.:  18.0
      thresh= 5.288E-05 alpha_mix =  0.700 |ddv_scf|^2 =  2.900E-07

     Pert. #  1: Fermi energy shift (Ry) =    -1.5306E-01     8.2718E-25

      iter #   3 total cpu time :  3940.1 secs   av.it.:  17.1
      thresh= 5.385E-05 alpha_mix =  0.700 |ddv_scf|^2 =  5.343E-09

     Pert. #  1: Fermi energy shift (Ry) =    -8.5825E-02    -2.0680E-25

      iter #   4 total cpu time :  3969.8 secs   av.it.:  17.1
      thresh= 7.310E-06 alpha_mix =  0.700 |ddv_scf|^2 =  1.817E-10

     Pert. #  1: Fermi energy shift (Ry) =    -7.4189E-02    -2.5849E-26

      iter #   5 total cpu time :  4007.3 secs   av.it.:  16.3
      thresh= 1.348E-06 alpha_mix =  0.700 |ddv_scf|^2 =  3.936E-11

     Pert. #  1: Fermi energy shift (Ry) =    -7.5783E-02     6.4623E-27

      iter #   6 total cpu time :  4036.0 secs   av.it.:  16.6
      thresh= 6.274E-07 alpha_mix =  0.700 |ddv_scf|^2 =  9.870E-13

     Pert. #  1: Fermi energy shift (Ry) =    -7.5318E-02    -4.0390E-28

      iter #   7 total cpu time :  4058.2 secs   av.it.:  18.0
      thresh= 9.935E-08 alpha_mix =  0.700 |ddv_scf|^2 =  5.521E-13

     Pert. #  1: Fermi energy shift (Ry) =    -7.6082E-02    -4.0390E-28

      iter #   8 total cpu time :  4073.9 secs   av.it.:  17.3
      thresh= 7.430E-08 alpha_mix =  0.700 |ddv_scf|^2 =  8.434E-14

     Pert. #  1: Fermi energy shift (Ry) =    -7.5693E-02     1.6156E-27

      iter #   9 total cpu time :  4091.1 secs   av.it.:  17.1
      thresh= 2.904E-08 alpha_mix =  0.700 |ddv_scf|^2 =  4.345E-15

     Pert. #  1: Fermi energy shift (Ry) =    -7.5778E-02     5.0487E-29

      iter #  10 total cpu time :  4113.4 secs   av.it.:  18.0
      thresh= 6.592E-09 alpha_mix =  0.700 |ddv_scf|^2 =  1.130E-15

     Pert. #  1: Fermi energy shift (Ry) =    -7.5710E-02    -4.0390E-28

      iter #  11 total cpu time :  4135.2 secs   av.it.:  17.7
      thresh= 3.362E-09 alpha_mix =  0.700 |ddv_scf|^2 =  1.094E-15

     Pert. #  1: Fermi energy shift (Ry) =    -7.5731E-02    -2.0195E-28

      iter #  12 total cpu time :  4167.5 secs   av.it.:  15.9
      thresh= 3.308E-09 alpha_mix =  0.700 |ddv_scf|^2 =  1.051E-17

     End of self-consistent calculation

     Convergence has been achieved 


     Representation #   9 mode #   9

     Self-consistent Calculation

     Pert. #  1: Fermi energy shift (Ry) =     5.6469E-22    -1.5673E-38

      iter #   1 total cpu time :  4277.0 secs   av.it.:   7.7
      thresh= 1.000E-02 alpha_mix =  0.700 |ddv_scf|^2 =  2.119E-08

     Pert. #  1: Fermi energy shift (Ry) =     2.8234E-22    -6.1224E-41

      iter #   2 total cpu time :  4325.3 secs   av.it.:  17.1
      thresh= 1.456E-05 alpha_mix =  0.700 |ddv_scf|^2 =  1.605E-09

     Pert. #  1: Fermi energy shift (Ry) =     5.6469E-22     7.6530E-42

      iter #   3 total cpu time :  4360.4 secs   av.it.:  17.0
      thresh= 4.006E-06 alpha_mix =  0.700 |ddv_scf|^2 =  4.214E-12

     Pert. #  1: Fermi energy shift (Ry) =     5.6469E-22    -5.9789E-44

      iter #   4 total cpu time :  4415.2 secs   av.it.:  16.9
      thresh= 2.053E-07 alpha_mix =  0.700 |ddv_scf|^2 =  5.627E-14

     Pert. #  1: Fermi energy shift (Ry) =     5.6469E-22    -5.9789E-44

      iter #   5 total cpu time :  4479.2 secs   av.it.:  16.9
      thresh= 2.372E-08 alpha_mix =  0.700 |ddv_scf|^2 =  1.928E-15

     Pert. #  1: Fermi energy shift (Ry) =     5.6469E-22    -5.9789E-44

      iter #   6 total cpu time :  4521.9 secs   av.it.:  17.0
      thresh= 4.391E-09 alpha_mix =  0.700 |ddv_scf|^2 =  1.854E-17

     End of self-consistent calculation

     Convergence has been achieved 


     Representation #  10 mode #  10

     Self-consistent Calculation

     Pert. #  1: Fermi energy shift (Ry) =     5.6469E-22    -6.2693E-38

      iter #   1 total cpu time :  4614.5 secs   av.it.:   7.0
      thresh= 1.000E-02 alpha_mix =  0.700 |ddv_scf|^2 =  1.504E-08

     Pert. #  1: Fermi energy shift (Ry) =     1.4117E-22    -1.2245E-40

      iter #   2 total cpu time :  4651.6 secs   av.it.:  17.1
      thresh= 1.227E-05 alpha_mix =  0.700 |ddv_scf|^2 =  2.634E-10

     Pert. #  1: Fermi energy shift (Ry) =     2.8234E-22     3.0612E-41

      iter #   3 total cpu time :  4709.7 secs   av.it.:  17.6
      thresh= 1.623E-06 alpha_mix =  0.700 |ddv_scf|^2 =  7.715E-12

     Pert. #  1: Fermi energy shift (Ry) =     2.8234E-22    -7.6530E-42

      iter #   4 total cpu time :  4764.8 secs   av.it.:  16.9
      thresh= 2.778E-07 alpha_mix =  0.700 |ddv_scf|^2 =  1.544E-13

     Pert. #  1: Fermi energy shift (Ry) =     2.8234E-22    -4.7831E-43

      iter #   5 total cpu time :  4812.8 secs   av.it.:  16.6
      thresh= 3.929E-08 alpha_mix =  0.700 |ddv_scf|^2 =  1.712E-15

     Pert. #  1: Fermi energy shift (Ry) =     2.8234E-22    -5.9789E-44

      iter #   6 total cpu time :  4859.0 secs   av.it.:  16.6
      thresh= 4.138E-09 alpha_mix =  0.700 |ddv_scf|^2 =  3.460E-17

     End of self-consistent calculation

     Convergence has been achieved 


     Representation #  11 mode #  11

     Self-consistent Calculation

     Pert. #  1: Fermi energy shift (Ry) =    -2.8234E-22    -3.1347E-38

      iter #   1 total cpu time :  4947.9 secs   av.it.:   7.0
      thresh= 1.000E-02 alpha_mix =  0.700 |ddv_scf|^2 =  1.435E-08

     Pert. #  1: Fermi energy shift (Ry) =    -3.5293E-23    -1.5306E-41

      iter #   2 total cpu time :  5001.0 secs   av.it.:  17.1
      thresh= 1.198E-05 alpha_mix =  0.700 |ddv_scf|^2 =  1.882E-10

     Pert. #  1: Fermi energy shift (Ry) =    -1.4117E-22     3.0612E-41

      iter #   3 total cpu time :  5035.5 secs   av.it.:  17.4
      thresh= 1.372E-06 alpha_mix =  0.700 |ddv_scf|^2 =  6.414E-12

     Pert. #  1: Fermi energy shift (Ry) =    -7.0586E-23    -7.6530E-42

      iter #   4 total cpu time :  5092.7 secs   av.it.:  16.9
      thresh= 2.533E-07 alpha_mix =  0.700 |ddv_scf|^2 =  1.621E-13

     Pert. #  1: Fermi energy shift (Ry) =    -7.0586E-23     2.3915E-43

      iter #   5 total cpu time :  5141.2 secs   av.it.:  16.6
      thresh= 4.026E-08 alpha_mix =  0.700 |ddv_scf|^2 =  2.094E-15

     Pert. #  1: Fermi energy shift (Ry) =    -7.0586E-23    -2.3915E-43

      iter #   6 total cpu time :  5155.1 secs   av.it.:  16.4
      thresh= 4.576E-09 alpha_mix =  0.700 |ddv_scf|^2 =  4.387E-17

     End of self-consistent calculation

     Convergence has been achieved 


     Representation #  12 modes #  12  13

     Self-consistent Calculation

     Pert. #  1: Fermi energy shift (Ry) =     0.0000E+00     0.0000E+00
     Pert. #  2: Fermi energy shift (Ry) =    -5.7824E-19     3.1347E-38

      iter #   1 total cpu time :  5212.9 secs   av.it.:   8.0
      thresh= 1.000E-02 alpha_mix =  0.700 |ddv_scf|^2 =  4.921E-08

     Pert. #  1: Fermi energy shift (Ry) =     4.6259E-18     2.4489E-40
     Pert. #  2: Fermi energy shift (Ry) =     1.1565E-17     1.2245E-40

      iter #   2 total cpu time :  5253.7 secs   av.it.:  19.7
      thresh= 2.218E-05 alpha_mix =  0.700 |ddv_scf|^2 =  8.435E-07

     Pert. #  1: Fermi energy shift (Ry) =    -5.7824E-19     9.7958E-40
     Pert. #  2: Fermi energy shift (Ry) =     0.0000E+00     0.0000E+00

      iter #   3 total cpu time :  5291.0 secs   av.it.:  16.8
      thresh= 9.184E-05 alpha_mix =  0.700 |ddv_scf|^2 =  9.895E-09

     Pert. #  1: Fermi energy shift (Ry) =     3.6140E-20     0.0000E+00
     Pert. #  2: Fermi energy shift (Ry) =    -1.8070E-20     1.5306E-41

      iter #   4 total cpu time :  5335.9 secs   av.it.:  17.3
      thresh= 9.947E-06 alpha_mix =  0.700 |ddv_scf|^2 =  5.888E-11

     Pert. #  1: Fermi energy shift (Ry) =    -7.2280E-20     2.8699E-42
     Pert. #  2: Fermi energy shift (Ry) =    -7.2280E-20     2.3915E-42

      iter #   5 total cpu time :  5421.1 secs   av.it.:  18.6
      thresh= 7.673E-07 alpha_mix =  0.700 |ddv_scf|^2 =  7.331E-12

     Pert. #  1: Fermi energy shift (Ry) =     1.4456E-19    -1.9132E-42
     Pert. #  2: Fermi energy shift (Ry) =    -7.2280E-20     1.9132E-42

      iter #   6 total cpu time :  5447.5 secs   av.it.:  19.1
      thresh= 2.708E-07 alpha_mix =  0.700 |ddv_scf|^2 =  4.625E-12

     Pert. #  1: Fermi energy shift (Ry) =    -2.1684E-19     1.1958E-43
     Pert. #  2: Fermi energy shift (Ry) =     1.0842E-19    -4.1852E-43

      iter #   7 total cpu time :  5470.9 secs   av.it.:  18.6
      thresh= 2.151E-07 alpha_mix =  0.700 |ddv_scf|^2 =  3.859E-13

     Pert. #  1: Fermi energy shift (Ry) =     1.4456E-19     2.9894E-44
     Pert. #  2: Fermi energy shift (Ry) =     7.2280E-20    -2.2421E-44

      iter #   8 total cpu time :  5505.5 secs   av.it.:  18.7
      thresh= 6.212E-08 alpha_mix =  0.700 |ddv_scf|^2 =  1.012E-14

     Pert. #  1: Fermi energy shift (Ry) =     0.0000E+00    -4.7831E-43
     Pert. #  2: Fermi energy shift (Ry) =     7.2280E-20     7.1746E-43

      iter #   9 total cpu time :  5545.6 secs   av.it.:  19.6
      thresh= 1.006E-08 alpha_mix =  0.700 |ddv_scf|^2 =  1.133E-14

     Pert. #  1: Fermi energy shift (Ry) =     7.2280E-20    -4.7831E-43
     Pert. #  2: Fermi energy shift (Ry) =     1.4456E-19     5.9789E-43

      iter #  10 total cpu time :  5576.8 secs   av.it.:  17.8
      thresh= 1.065E-08 alpha_mix =  0.700 |ddv_scf|^2 =  1.215E-16

     Pert. #  1: Fermi energy shift (Ry) =     1.4456E-19     4.7831E-43
     Pert. #  2: Fermi energy shift (Ry) =    -1.4456E-19     7.1746E-43

      iter #  11 total cpu time :  5615.5 secs   av.it.:  18.7
      thresh= 1.102E-09 alpha_mix =  0.700 |ddv_scf|^2 =  4.155E-18

     End of self-consistent calculation

     Convergence has been achieved 


     Representation #  13 modes #  14  15

     Self-consistent Calculation

     Pert. #  1: Fermi energy shift (Ry) =     2.3130E-18    -3.9183E-39
     Pert. #  2: Fermi energy shift (Ry) =     1.7347E-18    -1.5673E-38

      iter #   1 total cpu time :  5712.8 secs   av.it.:   7.0
      thresh= 1.000E-02 alpha_mix =  0.700 |ddv_scf|^2 =  2.106E-08

     Pert. #  1: Fermi energy shift (Ry) =    -4.6259E-18     3.0612E-41
     Pert. #  2: Fermi energy shift (Ry) =    -1.8504E-17     1.5306E-41

      iter #   2 total cpu time :  5863.2 secs   av.it.:  19.6
      thresh= 1.451E-05 alpha_mix =  0.700 |ddv_scf|^2 =  2.913E-07

     Pert. #  1: Fermi energy shift (Ry) =    -1.1565E-18     0.0000E+00
     Pert. #  2: Fermi energy shift (Ry) =     1.7347E-18    -6.1224E-41

      iter #   3 total cpu time :  5935.0 secs   av.it.:  16.9
      thresh= 5.398E-05 alpha_mix =  0.700 |ddv_scf|^2 =  7.966E-09

     Pert. #  1: Fermi energy shift (Ry) =    -5.4210E-20    -3.0612E-41
     Pert. #  2: Fermi energy shift (Ry) =     9.0350E-20    -1.5306E-41

      iter #   4 total cpu time :  5995.6 secs   av.it.:  17.3
      thresh= 8.925E-06 alpha_mix =  0.700 |ddv_scf|^2 =  2.948E-11

     Pert. #  1: Fermi energy shift (Ry) =    -1.8070E-20     4.7831E-43
     Pert. #  2: Fermi energy shift (Ry) =    -9.0350E-20     7.1746E-43

      iter #   5 total cpu time :  6091.7 secs   av.it.:  19.2
      thresh= 5.429E-07 alpha_mix =  0.700 |ddv_scf|^2 =  3.504E-12

     Pert. #  1: Fermi energy shift (Ry) =     1.3553E-20    -3.5873E-43
     Pert. #  2: Fermi energy shift (Ry) =     1.3553E-20     0.0000E+00

      iter #   6 total cpu time :  6125.6 secs   av.it.:  19.1
      thresh= 1.872E-07 alpha_mix =  0.700 |ddv_scf|^2 =  9.106E-13

     Pert. #  1: Fermi energy shift (Ry) =     1.3553E-20     0.0000E+00
     Pert. #  2: Fermi energy shift (Ry) =    -1.1294E-20    -1.1958E-43

      iter #   7 total cpu time :  6152.5 secs   av.it.:  19.0
      thresh= 9.543E-08 alpha_mix =  0.700 |ddv_scf|^2 =  1.236E-13

     Pert. #  1: Fermi energy shift (Ry) =    -4.5175E-21     2.9894E-44
     Pert. #  2: Fermi energy shift (Ry) =    -1.1294E-20    -1.7937E-43

      iter #   8 total cpu time :  6188.6 secs   av.it.:  18.7
      thresh= 3.515E-08 alpha_mix =  0.700 |ddv_scf|^2 =  1.167E-14

     Pert. #  1: Fermi energy shift (Ry) =     4.5175E-21     0.0000E+00
     Pert. #  2: Fermi energy shift (Ry) =    -4.5175E-21    -8.9683E-44

      iter #   9 total cpu time :  6221.0 secs   av.it.:  19.6
      thresh= 1.080E-08 alpha_mix =  0.700 |ddv_scf|^2 =  1.492E-14

     Pert. #  1: Fermi energy shift (Ry) =    -1.3553E-20     1.4947E-44
     Pert. #  2: Fermi energy shift (Ry) =    -2.2588E-21    -8.9683E-44

      iter #  10 total cpu time :  6254.7 secs   av.it.:  17.9
      thresh= 1.222E-08 alpha_mix =  0.700 |ddv_scf|^2 =  3.528E-16

     Pert. #  1: Fermi energy shift (Ry) =     9.0350E-21    -1.4947E-44
     Pert. #  2: Fermi energy shift (Ry) =    -1.8070E-20    -6.7262E-44

      iter #  11 total cpu time :  6287.0 secs   av.it.:  18.7
      thresh= 1.878E-09 alpha_mix =  0.700 |ddv_scf|^2 =  2.561E-17

     End of self-consistent calculation

     Convergence has been achieved 


     Representation #  14 modes #  16  17

     Self-consistent Calculation

     Pert. #  1: Fermi energy shift (Ry) =    -2.3130E-18    -1.2539E-37
     Pert. #  2: Fermi energy shift (Ry) =    -4.0477E-18     9.4040E-38

      iter #   1 total cpu time :  6385.3 secs   av.it.:   8.0
      thresh= 1.000E-02 alpha_mix =  0.700 |ddv_scf|^2 =  3.916E-08

     Pert. #  1: Fermi energy shift (Ry) =     1.3878E-17     1.0714E-40
     Pert. #  2: Fermi energy shift (Ry) =     1.8504E-17    -4.5918E-41

      iter #   2 total cpu time :  6430.1 secs   av.it.:  19.6
      thresh= 1.979E-05 alpha_mix =  0.700 |ddv_scf|^2 =  6.642E-07

     Pert. #  1: Fermi energy shift (Ry) =    -1.4456E-18     9.7958E-40
     Pert. #  2: Fermi energy shift (Ry) =    -1.1565E-18    -1.2245E-39

      iter #   3 total cpu time :  6486.9 secs   av.it.:  16.8
      thresh= 8.150E-05 alpha_mix =  0.700 |ddv_scf|^2 =  7.327E-09

     Pert. #  1: Fermi energy shift (Ry) =     7.2280E-20    -1.5306E-40
     Pert. #  2: Fermi energy shift (Ry) =     5.4210E-20     1.5306E-41

      iter #   4 total cpu time :  6520.4 secs   av.it.:  17.5
      thresh= 8.560E-06 alpha_mix =  0.700 |ddv_scf|^2 =  7.075E-11

     Pert. #  1: Fermi energy shift (Ry) =     2.1684E-19    -1.9132E-42
     Pert. #  2: Fermi energy shift (Ry) =     1.4456E-19     8.6096E-42

      iter #   5 total cpu time :  6620.5 secs   av.it.:  18.9
      thresh= 8.412E-07 alpha_mix =  0.700 |ddv_scf|^2 =  1.082E-11

     Pert. #  1: Fermi energy shift (Ry) =     3.6140E-20     7.1746E-43
     Pert. #  2: Fermi energy shift (Ry) =    -3.6140E-20    -1.6741E-42

      iter #   6 total cpu time :  6645.5 secs   av.it.:  18.7
      thresh= 3.290E-07 alpha_mix =  0.700 |ddv_scf|^2 =  7.528E-13

     Pert. #  1: Fermi energy shift (Ry) =     3.6140E-20     4.7831E-43
     Pert. #  2: Fermi energy shift (Ry) =     1.4456E-19    -7.1746E-43

      iter #   7 total cpu time :  6669.7 secs   av.it.:  19.4
      thresh= 8.676E-08 alpha_mix =  0.700 |ddv_scf|^2 =  4.196E-13

     Pert. #  1: Fermi energy shift (Ry) =     2.1684E-19     2.8699E-42
     Pert. #  2: Fermi energy shift (Ry) =     1.8070E-19    -1.4349E-42

      iter #   8 total cpu time :  6694.3 secs   av.it.:  18.7
      thresh= 6.478E-08 alpha_mix =  0.700 |ddv_scf|^2 =  3.506E-14

     Pert. #  1: Fermi energy shift (Ry) =     1.4456E-19     1.9132E-42
     Pert. #  2: Fermi energy shift (Ry) =     1.0842E-19    -2.3915E-42

      iter #   9 total cpu time :  6720.7 secs   av.it.:  19.2
      thresh= 1.872E-08 alpha_mix =  0.700 |ddv_scf|^2 =  3.126E-14

     Pert. #  1: Fermi energy shift (Ry) =     2.1684E-19     2.8699E-42
     Pert. #  2: Fermi energy shift (Ry) =     1.4456E-19    -2.3915E-42

      iter #  10 total cpu time :  6746.2 secs   av.it.:  18.1
      thresh= 1.768E-08 alpha_mix =  0.700 |ddv_scf|^2 =  4.794E-16

     Pert. #  1: Fermi energy shift (Ry) =     7.2280E-20     1.9132E-42
     Pert. #  2: Fermi energy shift (Ry) =     1.4456E-19    -4.7831E-43

      iter #  11 total cpu time :  6796.1 secs   av.it.:  19.7
      thresh= 2.189E-09 alpha_mix =  0.700 |ddv_scf|^2 =  3.086E-16

     Pert. #  1: Fermi energy shift (Ry) =     0.0000E+00     1.9132E-42
     Pert. #  2: Fermi energy shift (Ry) =     2.1684E-19    -4.7831E-43

      iter #  12 total cpu time :  6830.0 secs   av.it.:  18.6
      thresh= 1.757E-09 alpha_mix =  0.700 |ddv_scf|^2 =  1.859E-17

     End of self-consistent calculation

     Convergence has been achieved 


     Representation #  15 modes #  18  19

     Self-consistent Calculation

     Pert. #  1: Fermi energy shift (Ry) =    -7.2280E-20    -1.5673E-37
     Pert. #  2: Fermi energy shift (Ry) =    -7.2280E-20    -9.4040E-38

      iter #   1 total cpu time :  7334.0 secs   av.it.:   8.0
      thresh= 1.000E-02 alpha_mix =  0.700 |ddv_scf|^2 =  1.242E-08

     Pert. #  1: Fermi energy shift (Ry) =     0.0000E+00     0.0000E+00
     Pert. #  2: Fermi energy shift (Ry) =     2.8912E-19     1.8367E-40

      iter #   2 total cpu time :  7378.5 secs   av.it.:  19.4
      thresh= 1.115E-05 alpha_mix =  0.700 |ddv_scf|^2 =  3.706E-09

     Pert. #  1: Fermi energy shift (Ry) =     5.7824E-19    -2.6785E-41
     Pert. #  2: Fermi energy shift (Ry) =     2.8912E-19    -3.0612E-41

      iter #   3 total cpu time :  7428.4 secs   av.it.:  19.4
      thresh= 6.087E-06 alpha_mix =  0.700 |ddv_scf|^2 =  3.523E-09

     Pert. #  1: Fermi energy shift (Ry) =     2.8912E-19    -3.0612E-41
     Pert. #  2: Fermi energy shift (Ry) =     0.0000E+00     4.5918E-41

      iter #   4 total cpu time :  7486.0 secs   av.it.:  17.4
      thresh= 5.935E-06 alpha_mix =  0.700 |ddv_scf|^2 =  4.269E-10

     Pert. #  1: Fermi energy shift (Ry) =     1.4456E-19    -1.5306E-41
     Pert. #  2: Fermi energy shift (Ry) =    -1.8070E-19    -2.2959E-41

      iter #   5 total cpu time :  7546.6 secs   av.it.:  17.9
      thresh= 2.066E-06 alpha_mix =  0.700 |ddv_scf|^2 =  3.877E-12

     Pert. #  1: Fermi energy shift (Ry) =     2.8912E-19     9.5662E-43
     Pert. #  2: Fermi energy shift (Ry) =    -7.2280E-20     1.1958E-42

      iter #   6 total cpu time :  7585.1 secs   av.it.:  18.7
      thresh= 1.969E-07 alpha_mix =  0.700 |ddv_scf|^2 =  5.266E-13

     Pert. #  1: Fermi energy shift (Ry) =     1.4456E-19    -7.1746E-43
     Pert. #  2: Fermi energy shift (Ry) =    -7.2280E-20    -5.9789E-43

      iter #   7 total cpu time :  7609.9 secs   av.it.:  19.6
      thresh= 7.257E-08 alpha_mix =  0.700 |ddv_scf|^2 =  1.345E-13

     Pert. #  1: Fermi energy shift (Ry) =     5.0596E-19     9.5662E-43
     Pert. #  2: Fermi energy shift (Ry) =    -1.4456E-19     2.3915E-43

      iter #   8 total cpu time :  7655.6 secs   av.it.:  19.4
      thresh= 3.667E-08 alpha_mix =  0.700 |ddv_scf|^2 =  6.497E-15

     Pert. #  1: Fermi energy shift (Ry) =     2.1684E-19     0.0000E+00
     Pert. #  2: Fermi energy shift (Ry) =    -7.2280E-20    -2.3915E-43

      iter #   9 total cpu time :  7704.2 secs   av.it.:  18.9
      thresh= 8.060E-09 alpha_mix =  0.700 |ddv_scf|^2 =  3.363E-16

     Pert. #  1: Fermi energy shift (Ry) =    -7.2280E-20     2.3915E-43
     Pert. #  2: Fermi energy shift (Ry) =     7.2280E-20     0.0000E+00

      iter #  10 total cpu time :  7752.3 secs   av.it.:  18.9
      thresh= 1.834E-09 alpha_mix =  0.700 |ddv_scf|^2 =  8.604E-18

     End of self-consistent calculation

     Convergence has been achieved 


     Representation #  16 modes #  20  21

     Self-consistent Calculation

     Pert. #  1: Fermi energy shift (Ry) =     2.3130E-18     3.1347E-38
     Pert. #  2: Fermi energy shift (Ry) =    -8.6736E-19     3.1347E-38

      iter #   1 total cpu time :  7890.4 secs   av.it.:   7.3
      thresh= 1.000E-02 alpha_mix =  0.700 |ddv_scf|^2 =  6.994E-09

     Pert. #  1: Fermi energy shift (Ry) =    -3.4694E-18     3.0612E-41
     Pert. #  2: Fermi energy shift (Ry) =    -2.3130E-18     0.0000E+00

      iter #   2 total cpu time :  7920.2 secs   av.it.:  19.9
      thresh= 8.363E-06 alpha_mix =  0.700 |ddv_scf|^2 =  5.497E-08

     Pert. #  1: Fermi energy shift (Ry) =     1.1565E-18    -3.0612E-41
     Pert. #  2: Fermi energy shift (Ry) =    -1.1565E-18    -3.0612E-41

      iter #   3 total cpu time :  8007.0 secs   av.it.:  17.1
      thresh= 2.345E-05 alpha_mix =  0.700 |ddv_scf|^2 =  6.008E-09

     Pert. #  1: Fermi energy shift (Ry) =     2.8912E-19     1.5306E-41
     Pert. #  2: Fermi energy shift (Ry) =    -1.4456E-19     0.0000E+00

      iter #   4 total cpu time :  8047.9 secs   av.it.:  17.2
      thresh= 7.751E-06 alpha_mix =  0.700 |ddv_scf|^2 =  4.028E-11

     Pert. #  1: Fermi energy shift (Ry) =     1.4456E-19    -2.3915E-43
     Pert. #  2: Fermi energy shift (Ry) =     2.8912E-19     0.0000E+00

      iter #   5 total cpu time :  8087.6 secs   av.it.:  19.4
      thresh= 6.347E-07 alpha_mix =  0.700 |ddv_scf|^2 =  1.156E-11

     Pert. #  1: Fermi energy shift (Ry) =     5.7824E-19     4.7831E-43
     Pert. #  2: Fermi energy shift (Ry) =    -2.8912E-19     0.0000E+00

      iter #   6 total cpu time :  8126.3 secs   av.it.:  18.9
      thresh= 3.400E-07 alpha_mix =  0.700 |ddv_scf|^2 =  8.503E-13

     Pert. #  1: Fermi energy shift (Ry) =     4.3368E-19    -2.3915E-43
     Pert. #  2: Fermi energy shift (Ry) =    -1.0119E-18    -2.3915E-43

      iter #   7 total cpu time :  8169.2 secs   av.it.:  19.0
      thresh= 9.221E-08 alpha_mix =  0.700 |ddv_scf|^2 =  1.825E-13

     Pert. #  1: Fermi energy shift (Ry) =     2.8912E-19    -7.4736E-45
     Pert. #  2: Fermi energy shift (Ry) =     1.4456E-19    -7.4736E-45

      iter #   8 total cpu time :  8194.0 secs   av.it.:  18.7
      thresh= 4.272E-08 alpha_mix =  0.700 |ddv_scf|^2 =  2.627E-14

     Pert. #  1: Fermi energy shift (Ry) =     2.8912E-19    -1.4947E-44
     Pert. #  2: Fermi energy shift (Ry) =    -5.7824E-19    -1.4947E-44

      iter #   9 total cpu time :  8228.0 secs   av.it.:  19.6
      thresh= 1.621E-08 alpha_mix =  0.700 |ddv_scf|^2 =  7.730E-14

     Pert. #  1: Fermi energy shift (Ry) =     2.8912E-19    -2.9894E-44
     Pert. #  2: Fermi energy shift (Ry) =     2.8912E-19    -2.9894E-44

      iter #  10 total cpu time :  8261.3 secs   av.it.:  17.7
      thresh= 2.780E-08 alpha_mix =  0.700 |ddv_scf|^2 =  3.866E-16

     Pert. #  1: Fermi energy shift (Ry) =     5.7824E-19    -2.9894E-44
     Pert. #  2: Fermi energy shift (Ry) =    -3.6140E-19     0.0000E+00

      iter #  11 total cpu time :  8286.1 secs   av.it.:  20.1
      thresh= 1.966E-09 alpha_mix =  0.700 |ddv_scf|^2 =  3.668E-16

     Pert. #  1: Fermi energy shift (Ry) =     4.3368E-19    -2.9894E-44
     Pert. #  2: Fermi energy shift (Ry) =    -2.8912E-19     0.0000E+00

      iter #  12 total cpu time :  8327.1 secs   av.it.:  18.2
      thresh= 1.915E-09 alpha_mix =  0.700 |ddv_scf|^2 =  9.997E-18

     End of self-consistent calculation

     Convergence has been achieved 


     Representation #  17 modes #  22  23

     Self-consistent Calculation

     Pert. #  1: Fermi energy shift (Ry) =    -1.0842E-19    -1.5673E-38
     Pert. #  2: Fermi energy shift (Ry) =    -7.2280E-20    -2.7428E-38

      iter #   1 total cpu time :  8484.3 secs   av.it.:   7.4
      thresh= 1.000E-02 alpha_mix =  0.700 |ddv_scf|^2 =  6.900E-09

     Pert. #  1: Fermi energy shift (Ry) =     2.8912E-19    -1.1479E-41
     Pert. #  2: Fermi energy shift (Ry) =     1.1565E-18    -2.4872E-41

      iter #   2 total cpu time :  8519.2 secs   av.it.:  19.3
      thresh= 8.306E-06 alpha_mix =  0.700 |ddv_scf|^2 =  2.509E-09

     Pert. #  1: Fermi energy shift (Ry) =    -5.7824E-19     6.8877E-41
     Pert. #  2: Fermi energy shift (Ry) =     1.1565E-18     8.0356E-41

      iter #   3 total cpu time :  8556.9 secs   av.it.:  19.3
      thresh= 5.009E-06 alpha_mix =  0.700 |ddv_scf|^2 =  1.079E-08

     Pert. #  1: Fermi energy shift (Ry) =     7.2280E-20     2.2959E-41
     Pert. #  2: Fermi energy shift (Ry) =     9.0350E-20    -3.8265E-42

      iter #   4 total cpu time :  8606.5 secs   av.it.:  16.8
      thresh= 1.039E-05 alpha_mix =  0.700 |ddv_scf|^2 =  2.292E-10

     Pert. #  1: Fermi energy shift (Ry) =     3.6140E-20    -1.9132E-42
     Pert. #  2: Fermi energy shift (Ry) =    -1.8070E-20    -9.5662E-43

      iter #   5 total cpu time :  8649.2 secs   av.it.:  18.0
      thresh= 1.514E-06 alpha_mix =  0.700 |ddv_scf|^2 =  7.209E-12

     Pert. #  1: Fermi energy shift (Ry) =     1.8070E-20     1.4349E-42
     Pert. #  2: Fermi energy shift (Ry) =     0.0000E+00     1.3154E-42

      iter #   6 total cpu time :  8685.8 secs   av.it.:  18.8
      thresh= 2.685E-07 alpha_mix =  0.700 |ddv_scf|^2 =  1.553E-13

     Pert. #  1: Fermi energy shift (Ry) =     3.6140E-20    -5.9789E-44
     Pert. #  2: Fermi energy shift (Ry) =     1.8070E-20    -1.0463E-43

      iter #   7 total cpu time :  8722.2 secs   av.it.:  19.1
      thresh= 3.941E-08 alpha_mix =  0.700 |ddv_scf|^2 =  1.917E-14

     Pert. #  1: Fermi energy shift (Ry) =     1.8070E-20     2.9894E-44
     Pert. #  2: Fermi energy shift (Ry) =     2.7105E-20     5.2315E-44

      iter #   8 total cpu time :  8754.4 secs   av.it.:  19.2
      thresh= 1.385E-08 alpha_mix =  0.700 |ddv_scf|^2 =  8.895E-15

     Pert. #  1: Fermi energy shift (Ry) =    -9.0350E-21     1.8684E-45
     Pert. #  2: Fermi energy shift (Ry) =    -1.8070E-20     9.3420E-46

      iter #   9 total cpu time :  8782.8 secs   av.it.:  18.7
      thresh= 9.432E-09 alpha_mix =  0.700 |ddv_scf|^2 =  5.345E-16

     Pert. #  1: Fermi energy shift (Ry) =    -9.0350E-21    -1.4947E-44
     Pert. #  2: Fermi energy shift (Ry) =     0.0000E+00    -7.4736E-45

      iter #  10 total cpu time :  8812.6 secs   av.it.:  18.5
      thresh= 2.312E-09 alpha_mix =  0.700 |ddv_scf|^2 =  5.177E-17

     End of self-consistent calculation

     Convergence has been achieved 


     Representation #  18 modes #  24  25

     Self-consistent Calculation

     Pert. #  1: Fermi energy shift (Ry) =     2.8912E-19     7.8366E-39
     Pert. #  2: Fermi energy shift (Ry) =    -7.2280E-19    -1.1755E-38

      iter #   1 total cpu time :  8923.8 secs   av.it.:   8.0
      thresh= 1.000E-02 alpha_mix =  0.700 |ddv_scf|^2 =  1.537E-08

     Pert. #  1: Fermi energy shift (Ry) =     0.0000E+00     0.0000E+00
     Pert. #  2: Fermi energy shift (Ry) =     6.9389E-18     0.0000E+00

      iter #   2 total cpu time :  8962.5 secs   av.it.:  19.9
      thresh= 1.240E-05 alpha_mix =  0.700 |ddv_scf|^2 =  2.287E-07

     Pert. #  1: Fermi energy shift (Ry) =     5.7824E-19    -7.6530E-42
     Pert. #  2: Fermi energy shift (Ry) =    -1.4456E-19     1.1479E-41

      iter #   3 total cpu time :  9000.8 secs   av.it.:  16.8
      thresh= 4.782E-05 alpha_mix =  0.700 |ddv_scf|^2 =  4.069E-09

     Pert. #  1: Fermi energy shift (Ry) =     9.0350E-21     0.0000E+00
     Pert. #  2: Fermi energy shift (Ry) =    -2.7105E-20     0.0000E+00

      iter #   4 total cpu time :  9059.6 secs   av.it.:  17.5
      thresh= 6.379E-06 alpha_mix =  0.700 |ddv_scf|^2 =  7.499E-12

     Pert. #  1: Fermi energy shift (Ry) =    -1.1294E-21    -5.9789E-44
     Pert. #  2: Fermi energy shift (Ry) =    -2.2588E-21     8.9683E-44

      iter #   5 total cpu time :  9133.5 secs   av.it.:  19.4
      thresh= 2.738E-07 alpha_mix =  0.700 |ddv_scf|^2 =  2.231E-12

     Pert. #  1: Fermi energy shift (Ry) =    -4.5175E-21     0.0000E+00
     Pert. #  2: Fermi energy shift (Ry) =     5.6469E-21     0.0000E+00

      iter #   6 total cpu time :  9164.2 secs   av.it.:  18.7
      thresh= 1.494E-07 alpha_mix =  0.700 |ddv_scf|^2 =  4.351E-14

     Pert. #  1: Fermi energy shift (Ry) =     0.0000E+00     2.9894E-44
     Pert. #  2: Fermi energy shift (Ry) =     2.7105E-20    -4.4842E-44

      iter #   7 total cpu time :  9198.9 secs   av.it.:  19.7
      thresh= 2.086E-08 alpha_mix =  0.700 |ddv_scf|^2 =  2.214E-14

     Pert. #  1: Fermi energy shift (Ry) =    -2.2588E-21     5.9789E-44
     Pert. #  2: Fermi energy shift (Ry) =     7.9056E-21    -8.9683E-44

      iter #   8 total cpu time :  9228.8 secs   av.it.:  19.1
      thresh= 1.488E-08 alpha_mix =  0.700 |ddv_scf|^2 =  1.858E-15

     Pert. #  1: Fermi energy shift (Ry) =    -4.5175E-21     5.9789E-44
     Pert. #  2: Fermi energy shift (Ry) =     1.5811E-20    -8.9683E-44

      iter #   9 total cpu time :  9258.5 secs   av.it.:  20.0
      thresh= 4.311E-09 alpha_mix =  0.700 |ddv_scf|^2 =  6.733E-15

     Pert. #  1: Fermi energy shift (Ry) =     6.7763E-21     5.9789E-44
     Pert. #  2: Fermi energy shift (Ry) =    -7.9056E-21    -8.9683E-44

      iter #  10 total cpu time :  9284.2 secs   av.it.:  17.1
      thresh= 8.206E-09 alpha_mix =  0.700 |ddv_scf|^2 =  1.068E-15

     Pert. #  1: Fermi energy shift (Ry) =    -2.2588E-21     5.9789E-44
     Pert. #  2: Fermi energy shift (Ry) =     1.2423E-20    -8.9683E-44

      iter #  11 total cpu time :  9314.3 secs   av.it.:  18.1
      thresh= 3.268E-09 alpha_mix =  0.700 |ddv_scf|^2 =  2.179E-17

     End of self-consistent calculation

     Convergence has been achieved 


     Representation #  19 modes #  26  27

     Self-consistent Calculation

     Pert. #  1: Fermi energy shift (Ry) =     0.0000E+00    -1.0971E-37
     Pert. #  2: Fermi energy shift (Ry) =     5.7824E-19    -6.2693E-38

      iter #   1 total cpu time :  9495.2 secs   av.it.:   7.0
      thresh= 1.000E-02 alpha_mix =  0.700 |ddv_scf|^2 =  4.770E-09

     Pert. #  1: Fermi energy shift (Ry) =     5.7824E-19     2.6785E-41
     Pert. #  2: Fermi energy shift (Ry) =    -5.7824E-19     1.5306E-41

      iter #   2 total cpu time :  9526.7 secs   av.it.:  19.6
      thresh= 6.907E-06 alpha_mix =  0.700 |ddv_scf|^2 =  1.127E-08

     Pert. #  1: Fermi energy shift (Ry) =     2.3130E-18    -5.3571E-41
     Pert. #  2: Fermi energy shift (Ry) =     1.7347E-18    -3.0612E-41

      iter #   3 total cpu time :  9587.5 secs   av.it.:  17.8
      thresh= 1.062E-05 alpha_mix =  0.700 |ddv_scf|^2 =  1.279E-08

     Pert. #  1: Fermi energy shift (Ry) =    -7.2280E-20     1.0714E-40
     Pert. #  2: Fermi energy shift (Ry) =     2.1684E-19     1.1479E-40

      iter #   4 total cpu time :  9624.3 secs   av.it.:  16.9
      thresh= 1.131E-05 alpha_mix =  0.700 |ddv_scf|^2 =  4.478E-11

     Pert. #  1: Fermi energy shift (Ry) =    -2.8912E-19     1.4349E-42
     Pert. #  2: Fermi energy shift (Ry) =     0.0000E+00     1.1958E-42

      iter #   5 total cpu time :  9678.2 secs   av.it.:  18.9
      thresh= 6.691E-07 alpha_mix =  0.700 |ddv_scf|^2 =  6.183E-12

     Pert. #  1: Fermi energy shift (Ry) =     7.2280E-20    -2.3915E-43
     Pert. #  2: Fermi energy shift (Ry) =    -7.2280E-20    -8.9683E-44

      iter #   6 total cpu time :  9711.9 secs   av.it.:  18.9
      thresh= 2.487E-07 alpha_mix =  0.700 |ddv_scf|^2 =  1.354E-12

     Pert. #  1: Fermi energy shift (Ry) =     0.0000E+00     1.7937E-43
     Pert. #  2: Fermi energy shift (Ry) =     4.3368E-19     1.4947E-43

      iter #   7 total cpu time :  9742.6 secs   av.it.:  18.9
      thresh= 1.164E-07 alpha_mix =  0.700 |ddv_scf|^2 =  5.991E-14

     Pert. #  1: Fermi energy shift (Ry) =     1.4456E-19     5.9789E-44
     Pert. #  2: Fermi energy shift (Ry) =     2.8912E-19     7.4736E-44

      iter #   8 total cpu time :  9770.6 secs   av.it.:  19.3
      thresh= 2.448E-08 alpha_mix =  0.700 |ddv_scf|^2 =  1.527E-14

     Pert. #  1: Fermi energy shift (Ry) =     1.4456E-19    -1.4947E-44
     Pert. #  2: Fermi energy shift (Ry) =     2.8912E-19    -7.4736E-45

      iter #   9 total cpu time :  9800.7 secs   av.it.:  18.9
      thresh= 1.236E-08 alpha_mix =  0.700 |ddv_scf|^2 =  1.456E-14

     Pert. #  1: Fermi energy shift (Ry) =    -1.4456E-19    -1.4947E-44
     Pert. #  2: Fermi energy shift (Ry) =     2.8912E-19    -1.4947E-44

      iter #  10 total cpu time :  9827.3 secs   av.it.:  17.7
      thresh= 1.206E-08 alpha_mix =  0.700 |ddv_scf|^2 =  4.318E-16

     Pert. #  1: Fermi energy shift (Ry) =    -2.8912E-19     6.7262E-44
     Pert. #  2: Fermi energy shift (Ry) =     4.3368E-19     5.9789E-44

      iter #  11 total cpu time :  9857.7 secs   av.it.:  18.5
      thresh= 2.078E-09 alpha_mix =  0.700 |ddv_scf|^2 =  2.611E-17

     End of self-consistent calculation

     Convergence has been achieved 


     Representation #  20 modes #  28  29

     Self-consistent Calculation

     Pert. #  1: Fermi energy shift (Ry) =    -5.7824E-19     0.0000E+00
     Pert. #  2: Fermi energy shift (Ry) =     2.0238E-18     0.0000E+00

      iter #   1 total cpu time : 10155.3 secs   av.it.:   7.2
      thresh= 1.000E-02 alpha_mix =  0.700 |ddv_scf|^2 =  2.183E-08

     Pert. #  1: Fermi energy shift (Ry) =    -6.9389E-18     0.0000E+00
     Pert. #  2: Fermi energy shift (Ry) =    -1.1565E-18     0.0000E+00

      iter #   2 total cpu time : 10201.8 secs   av.it.:  19.6
      thresh= 1.478E-05 alpha_mix =  0.700 |ddv_scf|^2 =  2.957E-07

     Pert. #  1: Fermi energy shift (Ry) =     1.1565E-18     0.0000E+00
     Pert. #  2: Fermi energy shift (Ry) =    -5.7824E-19     0.0000E+00

      iter #   3 total cpu time : 10246.0 secs   av.it.:  16.8
      thresh= 5.438E-05 alpha_mix =  0.700 |ddv_scf|^2 =  9.213E-09

     Pert. #  1: Fermi energy shift (Ry) =     1.8070E-20     0.0000E+00
     Pert. #  2: Fermi energy shift (Ry) =     3.6140E-20     0.0000E+00

      iter #   4 total cpu time : 10309.2 secs   av.it.:  17.5
      thresh= 9.598E-06 alpha_mix =  0.700 |ddv_scf|^2 =  8.897E-11

     Pert. #  1: Fermi energy shift (Ry) =    -3.6140E-20     0.0000E+00
     Pert. #  2: Fermi energy shift (Ry) =     0.0000E+00     0.0000E+00

      iter #   5 total cpu time : 10361.7 secs   av.it.:  18.9
      thresh= 9.432E-07 alpha_mix =  0.700 |ddv_scf|^2 =  9.483E-12

     Pert. #  1: Fermi energy shift (Ry) =     0.0000E+00     0.0000E+00
     Pert. #  2: Fermi energy shift (Ry) =     1.8070E-20     0.0000E+00

      iter #   6 total cpu time : 10391.3 secs   av.it.:  18.6
      thresh= 3.079E-07 alpha_mix =  0.700 |ddv_scf|^2 =  6.482E-13

     Pert. #  1: Fermi energy shift (Ry) =     1.8070E-20     0.0000E+00
     Pert. #  2: Fermi energy shift (Ry) =     3.6140E-20     0.0000E+00

      iter #   7 total cpu time : 10427.7 secs   av.it.:  18.5
      thresh= 8.051E-08 alpha_mix =  0.700 |ddv_scf|^2 =  2.776E-14

     Pert. #  1: Fermi energy shift (Ry) =     0.0000E+00    -7.4736E-45
     Pert. #  2: Fermi energy shift (Ry) =     4.5175E-20     0.0000E+00

      iter #   8 total cpu time : 10465.9 secs   av.it.:  18.8
      thresh= 1.666E-08 alpha_mix =  0.700 |ddv_scf|^2 =  1.104E-15

     Pert. #  1: Fermi energy shift (Ry) =     5.4210E-20     0.0000E+00
     Pert. #  2: Fermi energy shift (Ry) =     0.0000E+00     0.0000E+00

      iter #   9 total cpu time : 10497.5 secs   av.it.:  19.8
      thresh= 3.323E-09 alpha_mix =  0.700 |ddv_scf|^2 =  1.208E-15

     Pert. #  1: Fermi energy shift (Ry) =    -1.8070E-20     0.0000E+00
     Pert. #  2: Fermi energy shift (Ry) =     3.6140E-20     0.0000E+00

      iter #  10 total cpu time : 10544.5 secs   av.it.:  18.6
      thresh= 3.475E-09 alpha_mix =  0.700 |ddv_scf|^2 =  5.888E-17

     End of self-consistent calculation

     Convergence has been achieved 


     Representation #  21 modes #  30  31

     Self-consistent Calculation

     Pert. #  1: Fermi energy shift (Ry) =     2.3130E-18     9.7958E-40
     Pert. #  2: Fermi energy shift (Ry) =    -8.6736E-19    -9.7958E-40

      iter #   1 total cpu time : 10630.2 secs   av.it.:   8.7
      thresh= 1.000E-02 alpha_mix =  0.700 |ddv_scf|^2 =  4.263E-08

     Pert. #  1: Fermi energy shift (Ry) =    -4.6259E-18     1.5306E-41
     Pert. #  2: Fermi energy shift (Ry) =     4.6259E-18    -1.5306E-41

      iter #   2 total cpu time : 10686.2 secs   av.it.:  19.6
      thresh= 2.065E-05 alpha_mix =  0.700 |ddv_scf|^2 =  1.736E-07

     Pert. #  1: Fermi energy shift (Ry) =     2.3130E-18     6.1224E-41
     Pert. #  2: Fermi energy shift (Ry) =    -1.7347E-18    -6.1224E-41

      iter #   3 total cpu time : 10739.5 secs   av.it.:  17.9
      thresh= 4.166E-05 alpha_mix =  0.700 |ddv_scf|^2 =  9.592E-08

     Pert. #  1: Fermi energy shift (Ry) =     2.8912E-19    -6.1224E-41
     Pert. #  2: Fermi energy shift (Ry) =    -3.2526E-19     6.1224E-41

      iter #   4 total cpu time : 10792.5 secs   av.it.:  17.1
      thresh= 3.097E-05 alpha_mix =  0.700 |ddv_scf|^2 =  3.451E-10

     Pert. #  1: Fermi energy shift (Ry) =    -1.0842E-19    -2.9894E-44
     Pert. #  2: Fermi energy shift (Ry) =     0.0000E+00     2.9894E-44

      iter #   5 total cpu time : 10850.6 secs   av.it.:  18.6
      thresh= 1.858E-06 alpha_mix =  0.700 |ddv_scf|^2 =  5.704E-12

     Pert. #  1: Fermi energy shift (Ry) =    -3.6140E-20     2.3915E-43
     Pert. #  2: Fermi energy shift (Ry) =     2.2588E-20     1.1958E-43

      iter #   6 total cpu time : 10874.1 secs   av.it.:  18.5
      thresh= 2.388E-07 alpha_mix =  0.700 |ddv_scf|^2 =  1.968E-13

     Pert. #  1: Fermi energy shift (Ry) =    -1.6941E-20    -5.9789E-44
     Pert. #  2: Fermi energy shift (Ry) =     9.5997E-21     5.9789E-44

      iter #   7 total cpu time : 10904.4 secs   av.it.:  19.6
      thresh= 4.436E-08 alpha_mix =  0.700 |ddv_scf|^2 =  9.172E-14

     Pert. #  1: Fermi energy shift (Ry) =    -3.1623E-20    -2.9894E-44
     Pert. #  2: Fermi energy shift (Ry) =    -1.5811E-20     2.9894E-44

      iter #   8 total cpu time : 10936.1 secs   av.it.:  19.1
      thresh= 3.028E-08 alpha_mix =  0.700 |ddv_scf|^2 =  2.524E-14

     Pert. #  1: Fermi energy shift (Ry) =    -1.3553E-20    -5.9789E-44
     Pert. #  2: Fermi energy shift (Ry) =     4.5175E-21     5.9789E-44

      iter #   9 total cpu time : 10970.2 secs   av.it.:  18.5
      thresh= 1.589E-08 alpha_mix =  0.700 |ddv_scf|^2 =  5.181E-16

     Pert. #  1: Fermi energy shift (Ry) =    -2.2588E-20    -5.9789E-44
     Pert. #  2: Fermi energy shift (Ry) =    -6.7763E-21    -2.9894E-44

      iter #  10 total cpu time : 11003.9 secs   av.it.:  19.1
      thresh= 2.276E-09 alpha_mix =  0.700 |ddv_scf|^2 =  4.063E-16

     Pert. #  1: Fermi energy shift (Ry) =    -1.8070E-20    -2.9894E-44
     Pert. #  2: Fermi energy shift (Ry) =    -4.5175E-21     2.9894E-44

      iter #  11 total cpu time : 11061.3 secs   av.it.:  17.7
      thresh= 2.016E-09 alpha_mix =  0.700 |ddv_scf|^2 =  2.099E-18

     End of self-consistent calculation

     Convergence has been achieved 


     Representation #  22 modes #  32  33

     Self-consistent Calculation

     Pert. #  1: Fermi energy shift (Ry) =    -1.8070E-20    -1.2539E-37
     Pert. #  2: Fermi energy shift (Ry) =    -6.3245E-20    -4.0750E-37

      iter #   1 total cpu time : 11202.4 secs   av.it.:   7.0
      thresh= 1.000E-02 alpha_mix =  0.700 |ddv_scf|^2 =  3.294E-09

     Pert. #  1: Fermi energy shift (Ry) =     8.6736E-19    -6.1224E-41
     Pert. #  2: Fermi energy shift (Ry) =     1.4456E-19    -9.1835E-41

      iter #   2 total cpu time : 11242.6 secs   av.it.:  19.5
      thresh= 5.739E-06 alpha_mix =  0.700 |ddv_scf|^2 =  5.973E-09

     Pert. #  1: Fermi energy shift (Ry) =    -2.3130E-18     1.8367E-40
     Pert. #  2: Fermi energy shift (Ry) =     2.8912E-19     5.8162E-40

      iter #   3 total cpu time : 11285.3 secs   av.it.:  18.0
      thresh= 7.729E-06 alpha_mix =  0.700 |ddv_scf|^2 =  9.912E-09

     Pert. #  1: Fermi energy shift (Ry) =     7.2280E-20    -3.0612E-41
     Pert. #  2: Fermi energy shift (Ry) =     4.5175E-20     1.6837E-40

      iter #   4 total cpu time : 11380.3 secs   av.it.:  16.8
      thresh= 9.956E-06 alpha_mix =  0.700 |ddv_scf|^2 =  1.344E-11

     Pert. #  1: Fermi energy shift (Ry) =     9.0350E-21    -9.5662E-43
     Pert. #  2: Fermi energy shift (Ry) =     4.5175E-21    -1.1958E-42

      iter #   5 total cpu time : 11422.7 secs   av.it.:  19.2
      thresh= 3.666E-07 alpha_mix =  0.700 |ddv_scf|^2 =  1.530E-12

     Pert. #  1: Fermi energy shift (Ry) =     2.7105E-20     9.5662E-43
     Pert. #  2: Fermi energy shift (Ry) =     2.2588E-20     1.1958E-43

      iter #   6 total cpu time : 11459.3 secs   av.it.:  18.9
      thresh= 1.237E-07 alpha_mix =  0.700 |ddv_scf|^2 =  1.110E-13

     Pert. #  1: Fermi energy shift (Ry) =     5.4210E-20    -1.7937E-43
     Pert. #  2: Fermi energy shift (Ry) =     1.8070E-20    -2.6905E-43

      iter #   7 total cpu time : 11490.9 secs   av.it.:  18.9
      thresh= 3.331E-08 alpha_mix =  0.700 |ddv_scf|^2 =  9.289E-15

     Pert. #  1: Fermi energy shift (Ry) =     2.7105E-20    -2.0926E-43
     Pert. #  2: Fermi energy shift (Ry) =     9.0350E-21     1.4947E-44

      iter #   8 total cpu time : 11525.4 secs   av.it.:  19.6
      thresh= 9.638E-09 alpha_mix =  0.700 |ddv_scf|^2 =  6.796E-15

     Pert. #  1: Fermi energy shift (Ry) =     4.5175E-20     5.9789E-44
     Pert. #  2: Fermi energy shift (Ry) =     4.5175E-20    -5.9789E-44

      iter #   9 total cpu time : 11554.8 secs   av.it.:  19.4
      thresh= 8.244E-09 alpha_mix =  0.700 |ddv_scf|^2 =  1.502E-14

     Pert. #  1: Fermi energy shift (Ry) =     1.8070E-20     1.1958E-43
     Pert. #  2: Fermi energy shift (Ry) =     4.5175E-21    -1.1958E-43

      iter #  10 total cpu time : 11592.9 secs   av.it.:  16.9
      thresh= 1.226E-08 alpha_mix =  0.700 |ddv_scf|^2 =  2.897E-16

     Pert. #  1: Fermi energy shift (Ry) =     4.5175E-20    -2.9894E-44
     Pert. #  2: Fermi energy shift (Ry) =     4.0658E-20    -3.7368E-44

      iter #  11 total cpu time : 11630.0 secs   av.it.:  19.6
      thresh= 1.702E-09 alpha_mix =  0.700 |ddv_scf|^2 =  1.793E-16

     Pert. #  1: Fermi energy shift (Ry) =     4.5175E-20    -2.9894E-44
     Pert. #  2: Fermi energy shift (Ry) =     2.2588E-20    -3.7368E-45

      iter #  12 total cpu time : 11676.6 secs   av.it.:  18.6
      thresh= 1.339E-09 alpha_mix =  0.700 |ddv_scf|^2 =  1.255E-17

     End of self-consistent calculation

     Convergence has been achieved 

     Number of q in the star =    1
     List of q in the star:
          1   0.000000000   0.000000000   0.000000000

     Diagonalizing the dynamical matrix

     q = (    0.000000000   0.000000000   0.000000000 ) 

 **************************************************************************
     freq (    1) =      -0.492220 [THz] =     -16.418693 [cm-1]
     freq (    2) =       0.434070 [THz] =      14.479001 [cm-1]
     freq (    3) =       0.434070 [THz] =      14.479001 [cm-1]
     freq (    4) =       3.030955 [THz] =     101.101765 [cm-1]
     freq (    5) =       3.415416 [THz] =     113.926006 [cm-1]
     freq (    6) =       3.415416 [THz] =     113.926006 [cm-1]
     freq (    7) =       4.423012 [THz] =     147.535797 [cm-1]
     freq (    8) =       4.423012 [THz] =     147.535797 [cm-1]
     freq (    9) =       6.231336 [THz] =     207.855000 [cm-1]
     freq (   10) =       6.231336 [THz] =     207.855000 [cm-1]
     freq (   11) =       6.289517 [THz] =     209.795704 [cm-1]
     freq (   12) =       6.923679 [THz] =     230.949058 [cm-1]
     freq (   13) =       8.156601 [THz] =     272.074935 [cm-1]
     freq (   14) =       8.156601 [THz] =     272.074935 [cm-1]
     freq (   15) =       8.859324 [THz] =     295.515248 [cm-1]
     freq (   16) =       8.859324 [THz] =     295.515248 [cm-1]
     freq (   17) =       9.348652 [THz] =     311.837456 [cm-1]
     freq (   18) =       9.348652 [THz] =     311.837456 [cm-1]
     freq (   19) =       9.526525 [THz] =     317.770677 [cm-1]
     freq (   20) =       9.791886 [THz] =     326.622172 [cm-1]
     freq (   21) =      10.252236 [THz] =     341.977787 [cm-1]
     freq (   22) =      10.507448 [THz] =     350.490728 [cm-1]
     freq (   23) =      10.507448 [THz] =     350.490728 [cm-1]
     freq (   24) =      10.659386 [THz] =     355.558829 [cm-1]
     freq (   25) =      10.659386 [THz] =     355.558829 [cm-1]
     freq (   26) =      11.229619 [THz] =     374.579758 [cm-1]
     freq (   27) =      11.880171 [THz] =     396.279848 [cm-1]
     freq (   28) =      11.880171 [THz] =     396.279848 [cm-1]
     freq (   29) =      13.365690 [THz] =     445.831440 [cm-1]
     freq (   30) =      15.048090 [THz] =     501.950259 [cm-1]
     freq (   31) =      15.956324 [THz] =     532.245694 [cm-1]
     freq (   32) =      15.956324 [THz] =     532.245694 [cm-1]
     freq (   33) =      17.926783 [THz] =     597.973116 [cm-1]
 **************************************************************************

     Mode symmetry, C_3v (3m)   point group:

     freq (   1-   1) =        -16.4  [cm-1]   --> A_1  L_1        I+R
     freq (   2-   3) =         14.5  [cm-1]   --> E    L_3        I+R
     freq (   4-   4) =        101.1  [cm-1]   --> A_2  L_2           
     freq (   5-   6) =        113.9  [cm-1]   --> E    L_3        I+R
     freq (   7-   8) =        147.5  [cm-1]   --> E    L_3        I+R
     freq (   9-  10) =        207.9  [cm-1]   --> E    L_3        I+R
     freq (  11-  11) =        209.8  [cm-1]   --> A_1  L_1        I+R
     freq (  12-  12) =        230.9  [cm-1]   --> A_1  L_1        I+R
     freq (  13-  14) =        272.1  [cm-1]   --> E    L_3        I+R
     freq (  15-  16) =        295.5  [cm-1]   --> E    L_3        I+R
     freq (  17-  18) =        311.8  [cm-1]   --> E    L_3        I+R
     freq (  19-  19) =        317.8  [cm-1]   --> A_1  L_1        I+R
     freq (  20-  20) =        326.6  [cm-1]   --> A_2  L_2           
     freq (  21-  21) =        342.0  [cm-1]   --> A_2  L_2           
     freq (  22-  23) =        350.5  [cm-1]   --> E    L_3        I+R
     freq (  24-  25) =        355.6  [cm-1]   --> E    L_3        I+R
     freq (  26-  26) =        374.6  [cm-1]   --> A_1  L_1        I+R
     freq (  27-  28) =        396.3  [cm-1]   --> E    L_3        I+R
     freq (  29-  29) =        445.8  [cm-1]   --> A_1  L_1        I+R
     freq (  30-  30) =        502.0  [cm-1]   --> A_1  L_1        I+R
     freq (  31-  32) =        532.2  [cm-1]   --> E    L_3        I+R
     freq (  33-  33) =        598.0  [cm-1]   --> A_1  L_1        I+R

     Calculation of q =    0.2886751  -0.5000000   0.0000000

     Parallelization info
     --------------------
     sticks:   dense  smooth     PW     G-vecs:    dense   smooth      PW
     Min         107     107     30                20893    20893    3139
     Max         108     108     32                20918    20918    3156
     Sum        3427    3427    967               668819   668819  100901

     Using Slab Decomposition


     Title: 
     Nb3F8                                                                      


     bravais-lattice index     =            0
     lattice parameter (alat)  =      11.1557  a.u.
     unit-cell volume          =    4949.5834 (a.u.)^3
     number of atoms/cell      =           11
     number of atomic types    =            2
     number of electrons       =        95.00
     number of Kohn-Sham states=           58
     kinetic-energy cutoff     =     100.0000  Ry
     charge density cutoff     =     400.0000  Ry
     Exchange-correlation= PBE
                           (   1   4   3   4   0   0   0)

     celldm(1)=  11.155732  celldm(2)=   0.000000  celldm(3)=   0.000000
     celldm(4)=   0.000000  celldm(5)=   0.000000  celldm(6)=   0.000000

     crystal axes: (cart. coord. in units of alat)
               a(1) = (   0.866025   0.500000   0.000000 )  
               a(2) = (  -0.866025   0.500000   0.000000 )  
               a(3) = (   0.000000   0.000000   4.116649 )  

     reciprocal axes: (cart. coord. in units 2 pi/alat)
               b(1) = (  0.577350  1.000000 -0.000000 )  
               b(2) = ( -0.577350  1.000000  0.000000 )  
               b(3) = (  0.000000 -0.000000  0.242916 )  


     PseudoPot. # 1 for Nb read from file:
     /scratch-shared/mroesner/Nb3X8_cDFPT/pp/Nb_ONCV_PBE-1.2.upf
     MD5 check sum: 2c750ac0b6910ff4cf0ab5f6c4124a64
     Pseudo is Norm-conserving, Zval = 13.0
     Generated using ONCVPSP code by D. R. Hamann
     Using radial grid of  602 points,  6 beta functions with: 
                l(1) =   0
                l(2) =   0
                l(3) =   1
                l(4) =   1
                l(5) =   2
                l(6) =   2

     PseudoPot. # 2 for F  read from file:
     /scratch-shared/mroesner/Nb3X8_cDFPT/pp/F_ONCV_PBE-1.2.upf
     MD5 check sum: 1d8275f47d602dd53cad6bcdc0eda7dc
     Pseudo is Norm-conserving, Zval =  7.0
     Generated using ONCVPSP code by D. R. Hamann
     Using radial grid of  602 points,  4 beta functions with: 
                l(1) =   0
                l(2) =   0
                l(3) =   1
                l(4) =   1

     atomic species   valence    mass     pseudopotential
     Nb               13.00    92.90637     Nb( 1.00)
     F                 7.00    18.99840     F ( 1.00)

      6 Sym. Ops. (no inversion) found



   Cartesian axes

     site n.     atom                  positions (alat units)
         1        Nb     tau(   1) = (   0.2520494   0.0000000  -0.4284351  )
         2        Nb     tau(   2) = (  -0.1260247   0.2182811  -0.4284351  )
         3        Nb     tau(   3) = (  -0.1260247  -0.2182811  -0.4284351  )
         4        F      tau(   4) = (   0.0000000   0.0000000  -0.6949788  )
         5        F      tau(   5) = (   0.8538710   0.0000000  -0.6151800  )
         6        F      tau(   6) = (   0.4390899   0.2394740  -0.6151800  )
         7        F      tau(   7) = (   0.4390899  -0.2394740  -0.6151800  )
         8        F      tau(   8) = (   0.5773503  -0.0000000  -0.2349628  )
         9        F      tau(   9) = (  -0.2772320  -0.0000000  -0.1987354  )
        10        F      tau(  10) = (   0.1386160  -0.2400899  -0.1987354  )
        11        F      tau(  11) = (   0.1386160   0.2400899  -0.1987354  )

     --------------------------------------------
     DFT-D3 Dispersion Correction (no 3-body):
     --------------------------------------------
       Reference C6 values for interpolation: 

         atom   Coordination number   C6
         F          0.000            19.38
         F          0.998            14.27
         Nb         0.000          2950.50
         Nb         1.954          1161.16
         Nb         2.922           857.79

       Values used:

         atom   Coordination number  R0_AB[au]  C6      C8
         Nb         9.389            3.647    857.79 111659.18
         Nb         9.389            3.647    857.79 111659.18
         Nb         9.389            3.647    857.79 111659.18
         F          2.907            2.173     14.27    244.15
         F          2.017            2.173     14.27    244.15
         F          2.017            2.173     14.27    244.15
         F          2.017            2.173     14.27    244.15
         F          2.836            2.173     14.27    244.15
         F          2.021            2.173     14.27    244.15
         F          2.021            2.173     14.27    244.15
         F          2.021            2.173     14.27    244.15

         Molecular C6 ( Ry / a.u.^6 ) =     13163.94


     number of k points=    26  Gaussian smearing, width (Ry)=  0.0037
                       cart. coord. in units 2pi/alat
        k(    1) = (   0.0000000   0.0000000   0.0000000), wk =   0.0555556
        k(    2) = (   0.2886751  -0.5000000   0.0000000), wk =   0.0000000
        k(    3) = (  -0.0962250   0.1666667   0.0000000), wk =   0.1111111
        k(    4) = (   0.1924501  -0.3333333   0.0000000), wk =   0.0000000
        k(    5) = (  -0.1924501   0.3333333   0.0000000), wk =   0.1111111
        k(    6) = (   0.0962250  -0.1666667   0.0000000), wk =   0.0000000
        k(    7) = (   0.2886751  -0.5000000   0.0000000), wk =   0.0555556
        k(    8) = (   0.5773503  -1.0000000   0.0000000), wk =   0.0000000
        k(    9) = (  -0.0000000   0.3333333   0.0000000), wk =   0.2222222
        k(   10) = (   0.2886751  -0.1666667   0.0000000), wk =   0.0000000
        k(   11) = (  -0.0962250   0.5000000   0.0000000), wk =   0.2222222
        k(   12) = (   0.1924501   0.0000000   0.0000000), wk =   0.0000000
        k(   13) = (  -0.0000000   0.6666667   0.0000000), wk =   0.1111111
        k(   14) = (   0.2886751   0.1666667   0.0000000), wk =   0.0000000
        k(   15) = (   0.1924501  -0.0000000   0.0000000), wk =   0.2222222
        k(   16) = (   0.4811252  -0.5000000   0.0000000), wk =   0.0000000
        k(   17) = (   0.3849002  -0.0000000   0.0000000), wk =   0.2222222
        k(   18) = (   0.6735753  -0.5000000   0.0000000), wk =   0.0000000
        k(   19) = (  -0.5773503   0.0000000   0.0000000), wk =   0.1111111
        k(   20) = (  -0.2886751  -0.5000000   0.0000000), wk =   0.0000000
        k(   21) = (   0.2886751   0.1666667   0.0000000), wk =   0.1111111
        k(   22) = (   0.5773503  -0.3333333   0.0000000), wk =   0.0000000
        k(   23) = (   0.4811252  -0.1666667   0.0000000), wk =   0.2222222
[...]
      thresh= 1.733E-04 alpha_mix =  0.700 |ddv_scf|^2 =  3.053E-08

      iter #   4 total cpu time : 27047.1 secs   av.it.:  15.8
      thresh= 1.747E-05 alpha_mix =  0.700 |ddv_scf|^2 =  1.004E-10

      iter #   5 total cpu time : 27085.5 secs   av.it.:  18.2
      thresh= 1.002E-06 alpha_mix =  0.700 |ddv_scf|^2 =  1.770E-11

      iter #   6 total cpu time : 27130.5 secs   av.it.:  17.9
      thresh= 4.207E-07 alpha_mix =  0.700 |ddv_scf|^2 =  3.544E-12

      iter #   7 total cpu time : 27159.2 secs   av.it.:  17.6
      thresh= 1.883E-07 alpha_mix =  0.700 |ddv_scf|^2 =  2.091E-13

      iter #   8 total cpu time : 27183.1 secs   av.it.:  17.3
      thresh= 4.572E-08 alpha_mix =  0.700 |ddv_scf|^2 =  3.244E-14

      iter #   9 total cpu time : 27202.4 secs   av.it.:  18.7
      thresh= 1.801E-08 alpha_mix =  0.700 |ddv_scf|^2 =  3.983E-13

      iter #  10 total cpu time : 27243.0 secs   av.it.:  15.5
      thresh= 6.311E-08 alpha_mix =  0.700 |ddv_scf|^2 =  6.172E-16

      iter #  11 total cpu time : 27267.3 secs   av.it.:  18.5
      thresh= 2.484E-09 alpha_mix =  0.700 |ddv_scf|^2 =  1.856E-16

      iter #  12 total cpu time : 27284.9 secs   av.it.:  17.7
      thresh= 1.362E-09 alpha_mix =  0.700 |ddv_scf|^2 =  3.946E-17

     End of self-consistent calculation

     Convergence has been achieved 


     Representation #  29 mode #  29

     Self-consistent Calculation

      iter #   1 total cpu time : 27327.8 secs   av.it.:   7.5
      thresh= 1.000E-02 alpha_mix =  0.700 |ddv_scf|^2 =  3.890E-08

      iter #   2 total cpu time : 27362.3 secs   av.it.:  18.5
      thresh= 1.972E-05 alpha_mix =  0.700 |ddv_scf|^2 =  5.368E-07

      iter #   3 total cpu time : 27393.5 secs   av.it.:  15.5
      thresh= 7.326E-05 alpha_mix =  0.700 |ddv_scf|^2 =  9.347E-09

      iter #   4 total cpu time : 27423.7 secs   av.it.:  16.5
      thresh= 9.668E-06 alpha_mix =  0.700 |ddv_scf|^2 =  1.751E-10

      iter #   5 total cpu time : 27451.1 secs   av.it.:  18.1
      thresh= 1.323E-06 alpha_mix =  0.700 |ddv_scf|^2 =  4.326E-11

      iter #   6 total cpu time : 27476.5 secs   av.it.:  17.1
      thresh= 6.577E-07 alpha_mix =  0.700 |ddv_scf|^2 =  3.635E-13

      iter #   7 total cpu time : 27499.2 secs   av.it.:  18.4
      thresh= 6.029E-08 alpha_mix =  0.700 |ddv_scf|^2 =  8.981E-14

      iter #   8 total cpu time : 27524.5 secs   av.it.:  17.9
      thresh= 2.997E-08 alpha_mix =  0.700 |ddv_scf|^2 =  8.851E-15

      iter #   9 total cpu time : 27554.2 secs   av.it.:  18.6
      thresh= 9.408E-09 alpha_mix =  0.700 |ddv_scf|^2 =  1.582E-14

      iter #  10 total cpu time : 27578.1 secs   av.it.:  16.7
      thresh= 1.258E-08 alpha_mix =  0.700 |ddv_scf|^2 =  1.068E-16

      iter #  11 total cpu time : 27601.9 secs   av.it.:  18.7
      thresh= 1.034E-09 alpha_mix =  0.700 |ddv_scf|^2 =  2.633E-16

      iter #  12 total cpu time : 27623.3 secs   av.it.:  16.8
      thresh= 1.623E-09 alpha_mix =  0.700 |ddv_scf|^2 =  8.998E-18

     End of self-consistent calculation

     Convergence has been achieved 


     Representation #  30 mode #  30

     Self-consistent Calculation

      iter #   1 total cpu time : 27680.9 secs   av.it.:   7.2
      thresh= 1.000E-02 alpha_mix =  0.700 |ddv_scf|^2 =  1.219E-07

      iter #   2 total cpu time : 27704.0 secs   av.it.:  18.2
      thresh= 3.492E-05 alpha_mix =  0.700 |ddv_scf|^2 =  1.984E-06

      iter #   3 total cpu time : 27747.8 secs   av.it.:  15.5
      thresh= 1.408E-04 alpha_mix =  0.700 |ddv_scf|^2 =  3.980E-08

      iter #   4 total cpu time : 27776.3 secs   av.it.:  15.7
      thresh= 1.995E-05 alpha_mix =  0.700 |ddv_scf|^2 =  7.714E-11

      iter #   5 total cpu time : 27810.5 secs   av.it.:  18.4
      thresh= 8.783E-07 alpha_mix =  0.700 |ddv_scf|^2 =  1.673E-11

      iter #   6 total cpu time : 27841.6 secs   av.it.:  17.5
      thresh= 4.090E-07 alpha_mix =  0.700 |ddv_scf|^2 =  2.788E-12

      iter #   7 total cpu time : 27869.6 secs   av.it.:  16.5
      thresh= 1.670E-07 alpha_mix =  0.700 |ddv_scf|^2 =  2.689E-13

      iter #   8 total cpu time : 27906.2 secs   av.it.:  16.7
      thresh= 5.185E-08 alpha_mix =  0.700 |ddv_scf|^2 =  6.055E-15

      iter #   9 total cpu time : 27942.8 secs   av.it.:  18.5
      thresh= 7.782E-09 alpha_mix =  0.700 |ddv_scf|^2 =  4.256E-15

      iter #  10 total cpu time : 27969.5 secs   av.it.:  17.5
      thresh= 6.524E-09 alpha_mix =  0.700 |ddv_scf|^2 =  2.941E-16

      iter #  11 total cpu time : 28005.4 secs   av.it.:  17.1
      thresh= 1.715E-09 alpha_mix =  0.700 |ddv_scf|^2 =  9.132E-19

     End of self-consistent calculation

     Convergence has been achieved 


     Representation #  31 mode #  31

     Self-consistent Calculation

      iter #   1 total cpu time : 28079.0 secs   av.it.:   7.8
      thresh= 1.000E-02 alpha_mix =  0.700 |ddv_scf|^2 =  1.212E-07

      iter #   2 total cpu time : 28123.6 secs   av.it.:  18.3
      thresh= 3.482E-05 alpha_mix =  0.700 |ddv_scf|^2 =  2.051E-06

      iter #   3 total cpu time : 28152.9 secs   av.it.:  15.5
      thresh= 1.432E-04 alpha_mix =  0.700 |ddv_scf|^2 =  3.179E-08

      iter #   4 total cpu time : 28186.3 secs   av.it.:  15.8
      thresh= 1.783E-05 alpha_mix =  0.700 |ddv_scf|^2 =  8.549E-11

      iter #   5 total cpu time : 28216.6 secs   av.it.:  18.5
      thresh= 9.246E-07 alpha_mix =  0.700 |ddv_scf|^2 =  2.334E-11

      iter #   6 total cpu time : 28243.5 secs   av.it.:  17.5
      thresh= 4.831E-07 alpha_mix =  0.700 |ddv_scf|^2 =  2.428E-12

      iter #   7 total cpu time : 28269.2 secs   av.it.:  16.7
      thresh= 1.558E-07 alpha_mix =  0.700 |ddv_scf|^2 =  4.035E-13

      iter #   8 total cpu time : 28296.7 secs   av.it.:  16.5
      thresh= 6.352E-08 alpha_mix =  0.700 |ddv_scf|^2 =  1.769E-14

      iter #   9 total cpu time : 28330.4 secs   av.it.:  18.1
      thresh= 1.330E-08 alpha_mix =  0.700 |ddv_scf|^2 =  4.014E-15

      iter #  10 total cpu time : 28355.4 secs   av.it.:  17.7
      thresh= 6.336E-09 alpha_mix =  0.700 |ddv_scf|^2 =  1.030E-16

      iter #  11 total cpu time : 28409.0 secs   av.it.:  17.8
      thresh= 1.015E-09 alpha_mix =  0.700 |ddv_scf|^2 =  4.735E-18

     End of self-consistent calculation

     Convergence has been achieved 


     Representation #  32 mode #  32

     Self-consistent Calculation

      iter #   1 total cpu time : 28484.8 secs   av.it.:   7.9
      thresh= 1.000E-02 alpha_mix =  0.700 |ddv_scf|^2 =  6.065E-08

      iter #   2 total cpu time : 28516.0 secs   av.it.:  18.4
      thresh= 2.463E-05 alpha_mix =  0.700 |ddv_scf|^2 =  9.244E-07

      iter #   3 total cpu time : 28550.8 secs   av.it.:  15.5
      thresh= 9.615E-05 alpha_mix =  0.700 |ddv_scf|^2 =  1.854E-08

      iter #   4 total cpu time : 28584.6 secs   av.it.:  15.9
      thresh= 1.361E-05 alpha_mix =  0.700 |ddv_scf|^2 =  2.253E-11

      iter #   5 total cpu time : 28622.3 secs   av.it.:  18.5
      thresh= 4.747E-07 alpha_mix =  0.700 |ddv_scf|^2 =  4.970E-12

      iter #   6 total cpu time : 28663.8 secs   av.it.:  18.0
      thresh= 2.229E-07 alpha_mix =  0.700 |ddv_scf|^2 =  2.189E-12

      iter #   7 total cpu time : 28683.1 secs   av.it.:  17.6
      thresh= 1.479E-07 alpha_mix =  0.700 |ddv_scf|^2 =  2.431E-13

      iter #   8 total cpu time : 28709.8 secs   av.it.:  16.8
      thresh= 4.930E-08 alpha_mix =  0.700 |ddv_scf|^2 =  8.314E-16

      iter #   9 total cpu time : 28731.2 secs   av.it.:  18.6
      thresh= 2.883E-09 alpha_mix =  0.700 |ddv_scf|^2 =  9.328E-16

      iter #  10 total cpu time : 28757.1 secs   av.it.:  17.5
      thresh= 3.054E-09 alpha_mix =  0.700 |ddv_scf|^2 =  1.190E-16

      iter #  11 total cpu time : 28784.8 secs   av.it.:  16.7
      thresh= 1.091E-09 alpha_mix =  0.700 |ddv_scf|^2 =  6.784E-18

     End of self-consistent calculation

     Convergence has been achieved 


     Representation #  33 mode #  33

     Self-consistent Calculation

      iter #   1 total cpu time : 28848.6 secs   av.it.:   7.7
      thresh= 1.000E-02 alpha_mix =  0.700 |ddv_scf|^2 =  3.263E-08

      iter #   2 total cpu time : 28888.3 secs   av.it.:  18.5
      thresh= 1.806E-05 alpha_mix =  0.700 |ddv_scf|^2 =  3.554E-07

      iter #   3 total cpu time : 28942.0 secs   av.it.:  15.5
      thresh= 5.961E-05 alpha_mix =  0.700 |ddv_scf|^2 =  1.571E-08

      iter #   4 total cpu time : 28980.8 secs   av.it.:  16.2
      thresh= 1.253E-05 alpha_mix =  0.700 |ddv_scf|^2 =  8.803E-10

      iter #   5 total cpu time : 29009.7 secs   av.it.:  17.0
      thresh= 2.967E-06 alpha_mix =  0.700 |ddv_scf|^2 =  2.233E-11

      iter #   6 total cpu time : 29037.4 secs   av.it.:  17.6
      thresh= 4.726E-07 alpha_mix =  0.700 |ddv_scf|^2 =  5.817E-13

      iter #   7 total cpu time : 29071.8 secs   av.it.:  17.5
      thresh= 7.627E-08 alpha_mix =  0.700 |ddv_scf|^2 =  8.574E-14

      iter #   8 total cpu time : 29091.8 secs   av.it.:  17.7
      thresh= 2.928E-08 alpha_mix =  0.700 |ddv_scf|^2 =  1.355E-14

      iter #   9 total cpu time : 29119.0 secs   av.it.:  18.0
      thresh= 1.164E-08 alpha_mix =  0.700 |ddv_scf|^2 =  2.069E-15

      iter #  10 total cpu time : 29151.2 secs   av.it.:  18.4
      thresh= 4.549E-09 alpha_mix =  0.700 |ddv_scf|^2 =  2.555E-15

      iter #  11 total cpu time : 29175.0 secs   av.it.:  16.5
      thresh= 5.055E-09 alpha_mix =  0.700 |ddv_scf|^2 =  3.857E-16

      iter #  12 total cpu time : 29189.1 secs   av.it.:  17.5
      thresh= 1.964E-09 alpha_mix =  0.700 |ddv_scf|^2 =  4.059E-17

     End of self-consistent calculation

     Convergence has been achieved 

     Number of q in the star =    3
     List of q in the star:
          1   0.288675135  -0.500000000   0.000000000
          2  -0.577350269   0.000000000   0.000000000
          3   0.288675135   0.500000000   0.000000000

     Diagonalizing the dynamical matrix

     q = (    0.288675135  -0.500000000   0.000000000 ) 

 **************************************************************************
     freq (    1) =       1.541943 [THz] =      51.433688 [cm-1]
     freq (    2) =       1.664526 [THz] =      55.522599 [cm-1]
     freq (    3) =       1.801486 [THz] =      60.091103 [cm-1]
     freq (    4) =       2.442617 [THz] =      81.476947 [cm-1]
     freq (    5) =       3.525410 [THz] =     117.595031 [cm-1]
     freq (    6) =       3.703055 [THz] =     123.520611 [cm-1]
     freq (    7) =       4.368103 [THz] =     145.704221 [cm-1]
     freq (    8) =       4.757926 [THz] =     158.707326 [cm-1]
     freq (    9) =       5.718189 [THz] =     190.738248 [cm-1]
     freq (   10) =       5.762587 [THz] =     192.219228 [cm-1]
     freq (   11) =       6.118338 [THz] =     204.085776 [cm-1]
     freq (   12) =       6.644504 [THz] =     221.636808 [cm-1]
     freq (   13) =       7.156393 [THz] =     238.711589 [cm-1]
     freq (   14) =       7.663503 [THz] =     255.626947 [cm-1]
     freq (   15) =       8.757308 [THz] =     292.112354 [cm-1]
     freq (   16) =       9.038016 [THz] =     301.475748 [cm-1]
     freq (   17) =       9.287506 [THz] =     309.797843 [cm-1]
     freq (   18) =       9.302617 [THz] =     310.301895 [cm-1]
     freq (   19) =       9.665112 [THz] =     322.393437 [cm-1]
     freq (   20) =       9.670604 [THz] =     322.576634 [cm-1]
     freq (   21) =      10.056121 [THz] =     335.436091 [cm-1]
     freq (   22) =      10.189780 [THz] =     339.894466 [cm-1]
     freq (   23) =      10.203357 [THz] =     340.347339 [cm-1]
     freq (   24) =      10.475191 [THz] =     349.414759 [cm-1]
     freq (   25) =      10.902421 [THz] =     363.665627 [cm-1]
     freq (   26) =      11.520076 [THz] =     384.268374 [cm-1]
     freq (   27) =      12.128911 [THz] =     404.576915 [cm-1]
     freq (   28) =      12.324287 [THz] =     411.093951 [cm-1]
     freq (   29) =      13.127636 [THz] =     437.890802 [cm-1]
     freq (   30) =      14.558074 [THz] =     485.605083 [cm-1]
     freq (   31) =      15.593834 [THz] =     520.154327 [cm-1]
     freq (   32) =      16.354262 [THz] =     545.519474 [cm-1]
     freq (   33) =      16.390247 [THz] =     546.719777 [cm-1]
 **************************************************************************

     Mode symmetry, C_s (m)     point group:

     freq (   1-   1) =         51.4  [cm-1]   --> A'                 
     freq (   2-   2) =         55.5  [cm-1]   --> A''                
     freq (   3-   3) =         60.1  [cm-1]   --> A'                 
     freq (   4-   4) =         81.5  [cm-1]   --> A''                
     freq (   5-   5) =        117.6  [cm-1]   --> A'                 
     freq (   6-   6) =        123.5  [cm-1]   --> A''                
     freq (   7-   7) =        145.7  [cm-1]   --> A'                 
     freq (   8-   8) =        158.7  [cm-1]   --> A''                
     freq (   9-   9) =        190.7  [cm-1]   --> A'                 
     freq (  10-  10) =        192.2  [cm-1]   --> A''                
     freq (  11-  11) =        204.1  [cm-1]   --> A'                 
     freq (  12-  12) =        221.6  [cm-1]   --> A'                 
     freq (  13-  13) =        238.7  [cm-1]   --> A''                
     freq (  14-  14) =        255.6  [cm-1]   --> A'                 
     freq (  15-  15) =        292.1  [cm-1]   --> A'                 
     freq (  16-  16) =        301.5  [cm-1]   --> A''                
     freq (  17-  17) =        309.8  [cm-1]   --> A''                
     freq (  18-  18) =        310.3  [cm-1]   --> A'                 
     freq (  19-  19) =        322.4  [cm-1]   --> A''                
     freq (  20-  20) =        322.6  [cm-1]   --> A'                 
     freq (  21-  21) =        335.4  [cm-1]   --> A'                 
     freq (  22-  22) =        339.9  [cm-1]   --> A'                 
     freq (  23-  23) =        340.3  [cm-1]   --> A''                
     freq (  24-  24) =        349.4  [cm-1]   --> A''                
     freq (  25-  25) =        363.7  [cm-1]   --> A''                
     freq (  26-  26) =        384.3  [cm-1]   --> A'                 
     freq (  27-  27) =        404.6  [cm-1]   --> A'                 
     freq (  28-  28) =        411.1  [cm-1]   --> A''                
     freq (  29-  29) =        437.9  [cm-1]   --> A'                 
     freq (  30-  30) =        485.6  [cm-1]   --> A'                 
     freq (  31-  31) =        520.2  [cm-1]   --> A''                
     freq (  32-  32) =        545.5  [cm-1]   --> A'                 
     freq (  33-  33) =        546.7  [cm-1]   --> A'                 

     init_run     :      0.21s CPU      2.41s WALL (       1 calls)
     electrons    :     24.58s CPU     26.11s WALL (       1 calls)

     Called by init_run:
     wfcinit      :      0.00s CPU      1.72s WALL (       1 calls)
     potinit      :      0.03s CPU      0.48s WALL (       1 calls)
     hinit0       :      0.00s CPU      0.00s WALL (       1 calls)

     Called by electrons:
     c_bands      :     24.57s CPU     26.06s WALL (       1 calls)
     v_of_rho     :      0.05s CPU      0.06s WALL (       2 calls)

     Called by c_bands:
     init_us_2    :      4.03s CPU      4.65s WALL (    1440 calls)
     cegterg      :     10.24s CPU     10.39s WALL (       8 calls)

     Called by *egterg:
     cdiaghg      :      1.50s CPU      1.52s WALL (     139 calls)
     h_psi        :   2224.40s CPU   2253.19s WALL (   42912 calls)
     g_psi        :      0.04s CPU      0.04s WALL (     135 calls)

     Called by h_psi:
     h_psi:calbec :    132.83s CPU    135.05s WALL (   42912 calls)
     vloc_psi     :   1937.38s CPU   1960.69s WALL (   42912 calls)
     add_vuspsi   :    117.42s CPU    119.72s WALL (   42912 calls)

     General routines
     calbec       :    365.07s CPU    369.92s WALL (   86125 calls)
     fft          :     38.35s CPU     41.23s WALL (   10147 calls)
     ffts         :    196.47s CPU    198.63s WALL (    2948 calls)
     fftw         :   3715.01s CPU   3751.73s WALL ( 2276490 calls)
     davcio       :      1.75s CPU   3045.03s WALL (   13265 calls)

     Parallel routines

     PHONON       :  21039.56s CPU  29277.02s WALL

     INITIALIZATION: 
     phq_setup    :      0.26s CPU      0.55s WALL (       2 calls)
     phq_init     :      7.26s CPU     10.46s WALL (       2 calls)

     phq_init     :      7.26s CPU     10.46s WALL (       2 calls)
     init_vloc    :      0.01s CPU      0.01s WALL (       2 calls)
     init_us_1    :      0.00s CPU      0.00s WALL (       2 calls)
     init_us_2    :      4.03s CPU      4.65s WALL (    1440 calls)

     DYNAMICAL MATRIX:
     dynmat0      :      7.16s CPU     10.36s WALL (       2 calls)
     dynmat_us    :      4.74s CPU      4.79s WALL (       2 calls)
     d2ionq       :      0.12s CPU      0.12s WALL (       2 calls)
     phqscf       :  20991.83s CPU  28952.43s WALL (       2 calls)
     dynmatrix    :      4.41s CPU      4.48s WALL (       2 calls)

     phqscf       :  20991.83s CPU  28952.43s WALL (       2 calls)
     solve_linter :  20905.35s CPU  28735.86s WALL (      55 calls)
     sth_kernel   :   6640.96s CPU   7742.07s WALL (     734 calls)
     h_prec       :    405.58s CPU    409.07s WALL (    1232 calls)
     apply_dpot_b :   1384.15s CPU   1395.64s WALL (    1254 calls)
     ortho        :    115.40s CPU    116.49s WALL (    1353 calls)
     cgsolve      :   2772.31s CPU   2811.85s WALL (    1353 calls)
     incdrhoscf   :    502.80s CPU    507.36s WALL (    1353 calls)
                                        0.00s GPU  (    1353 calls)
     dv_of_drho   :     44.05s CPU     47.23s WALL (     855 calls)
     mix_pot      :   1983.35s CPU   5930.21s WALL (     734 calls)
     ef_shift     :      0.85s CPU      1.48s WALL (     236 calls)
     ef_shift_wfc :      0.01s CPU      4.78s WALL (      22 calls)
     localdos     :    113.41s CPU    114.58s WALL (      22 calls)
     drhodv       :     86.32s CPU    120.73s WALL (      55 calls)
     psymdvscf    :    176.64s CPU    191.10s WALL (     734 calls)

     dvqpsi_us    :    200.70s CPU    202.38s WALL (      99 calls)
                                        0.00s GPU  (      99 calls)
     dvqpsi_us_on :      1.18s CPU      1.20s WALL (      99 calls)

     add_vuspsi   :    117.42s CPU    119.72s WALL (   42912 calls)


      General routines
     calbec       :    365.07s CPU    369.92s WALL (   86125 calls)
     fft          :     38.35s CPU     41.23s WALL (   10147 calls)
     ffts         :    196.47s CPU    198.63s WALL (    2948 calls)
     fftw         :   3715.01s CPU   3751.73s WALL ( 2276490 calls)
     davcio       :      1.75s CPU   3045.03s WALL (   13265 calls)
     write_rec    :      1.23s CPU   2548.37s WALL (     789 calls)

      Additional routines
     ch_psi       :   2598.55s CPU   2633.91s WALL (   42765 calls)
     last         :    311.71s CPU    316.65s WALL (   42765 calls)
     Hesh         :     32.36s CPU     33.03s WALL (   42765 calls)
     ch_psi_all_k :    279.00s CPU    283.36s WALL (   42765 calls)
                                        0.00s GPU  (   42765 calls)
     ch_psi_calbe :    120.49s CPU    122.06s WALL (   42765 calls)
                                        0.00s GPU  (   42765 calls)
     h_psi_bgrp   :   2224.56s CPU   2253.28s WALL (   42912 calls)
     h_psi        :   2224.40s CPU   2253.19s WALL (   42912 calls)
     h_psi:pot    :   2188.04s CPU   2215.70s WALL (   42912 calls)
     h_psi:calbec :    132.83s CPU    135.05s WALL (   42912 calls)
     s_psi_bgrp   :     40.76s CPU     41.83s WALL (   86883 calls)


     PHONON       :  21039.56s CPU  29277.03s WALL


   This run was terminated on:   6:54:31   8May2025            

=------------------------------------------------------------------------------=
   JOB DONE.
=------------------------------------------------------------------------------=
