
     Program PHONON v.7.3.1 starts on  7May2025 at 22:23:26 

     This program is part of the open-source Quantum ESPRESSO suite
     for quantum simulation of materials; please cite
         "P. Giannozzi et al., J. Phys.:Condens. Matter 21 395502 (2009);
         "P. Giannozzi et al., J. Phys.:Condens. Matter 29 465901 (2017);
         "P. Giannozzi et al., J. Chem. Phys. 152 154105 (2020);
          URL http://www.quantum-espresso.org", 
     in publications or presentations arising from this work. More details at
     http://www.quantum-espresso.org/quote

     Parallel version (MPI & OpenMP), running on     384 processor cores
     Number of MPI processes:               384
     Threads/MPI process:                     1

     MPI processes distributed on     2 nodes
     338296 MiB available memory on the printing compute node when the environment starts

     Waiting for input...
     Reading input from standard input
     Run is not recoverable starting from scratch

     Reading xml data from directory:

     ./out/Nb3Br8.save/

     K-points division:     npool     =      12
     R & G space division:  proc/nbgrp/npool/nimage =      32
     Subspace diagonalization in iterative solution of the eigenvalue problem:
     a serial algorithm will be used


     IMPORTANT: XC functional enforced from input :
     Exchange-correlation= PBE
                           (   1   4   3   4   0   0   0)
     Any further DFT definition will be discarded
     Please, verify this is what you really want


     Parallelization info
     --------------------
     sticks:   dense  smooth     PW     G-vecs:    dense   smooth      PW
     Min         154     154     40                40066    40066    5474
     Max         155     155     41                40087    40087    5503
     Sum        4939    4939   1303              1282343  1282343  175515

     Using Slab Decomposition

     Message from routine divide_et_impera:
     suboptimal parallelization: some nodes have no k-points
     Reading collected, re-writing distributed wavefunctions in ./out/


     Dynamical matrices for ( 2, 2, 1)  uniform grid of q-points
     (   2 q-points):
       N         xq(1)         xq(2)         xq(3) 
       1   0.000000000   0.000000000   0.000000000
       2   0.288675135  -0.500000000   0.000000000

     Number and degeneracy of irreps per q-point
       N         xq(1)         xq(2)         xq(3)   N irreps
       1   0.000000000   0.000000000   0.000000000      22
        1   1   1   1   1   1   1   1   1   1   1   2   2   2   2   2   2   2
   2   2   2   2
       2   0.288675135  -0.500000000   0.000000000      33
     No degeneracy

     Saving dvscf to file. Distribute only q points, not irreducible representations.

     Calculation of q =    0.0000000   0.0000000   0.0000000

     Nb3Br8                                                                     

     bravais-lattice index     =            0
     lattice parameter (alat)  =      13.3936  a.u.
     unit-cell volume          =    9490.8392 (a.u.)^3
     number of atoms/cell      =           11
     number of atomic types    =            2
     kinetic-energy cut-off    =     100.0000  Ry
     charge density cut-off    =     400.0000  Ry
     convergence threshold     =      1.0E-16
     beta                      =       0.7000
     number of iterations used =            4
     Exchange-correlation= PBE
                           (   1   4   3   4   0   0   0)


     celldm(1)=   13.39359  celldm(2)=    0.00000  celldm(3)=    0.00000
     celldm(4)=    0.00000  celldm(5)=    0.00000  celldm(6)=    0.00000

     crystal axes: (cart. coord. in units of alat)
               a(1) = (  0.8660  0.5000  0.0000 )  
               a(2) = ( -0.8660  0.5000  0.0000 )  
               a(3) = (  0.0000  0.0000  4.5612 )  

     reciprocal axes: (cart. coord. in units 2 pi/alat)
               b(1) = (  0.5774  1.0000 -0.0000 )  
               b(2) = ( -0.5774  1.0000  0.0000 )  
               b(3) = (  0.0000 -0.0000  0.2192 )  


     Atoms inside the unit cell: 

     Cartesian axes

     site n.  atom      mass           positions (alat units)
        1  Nb     92.9064   tau(    1) = (    0.23439    0.00000   -0.46584  )
        2  Nb     92.9064   tau(    2) = (   -0.11720    0.20299   -0.46584  )
        3  Nb     92.9064   tau(    3) = (   -0.11720   -0.20299   -0.46584  )
        4  Br     79.9040   tau(    4) = (    0.00000    0.00000   -0.74668  )
        5  Br     79.9040   tau(    5) = (   -0.86123   -0.00000   -0.66862  )
        6  Br     79.9040   tau(    6) = (   -0.43541   -0.24585   -0.66862  )
        7  Br     79.9040   tau(    7) = (   -0.43541    0.24585   -0.66862  )
        8  Br     79.9040   tau(    8) = (    0.57735   -0.00000   -0.26470  )
        9  Br     79.9040   tau(    9) = (   -0.28679    0.00000   -0.21541  )
       10  Br     79.9040   tau(   10) = (    0.14339   -0.24836   -0.21541  )
       11  Br     79.9040   tau(   11) = (    0.14339    0.24836   -0.21541  )

     Computing dynamical matrix for 
                    q = (   0.0000000   0.0000000   0.0000000 )

      7 Sym.Ops. (with q -> -q+G )


     G cutoff = 1817.5838  (  40070 G-vectors)     FFT grid: ( 90, 90,400)

     number of k points=     7  Gaussian smearing, width (Ry)=  0.0037

     PseudoPot. # 1 for Nb read from file:
     /scratch-shared/mroesner/Nb3X8_cDFPT/pp/Nb_ONCV_PBE-1.2.upf
     MD5 check sum: 2c750ac0b6910ff4cf0ab5f6c4124a64
     Pseudo is Norm-conserving, Zval = 13.0
     Generated using ONCVPSP code by D. R. Hamann
     Using radial grid of  602 points,  6 beta functions with: 
                l(1) =   0
                l(2) =   0
                l(3) =   1
                l(4) =   1
                l(5) =   2
                l(6) =   2

     PseudoPot. # 2 for Br read from file:
     /scratch-shared/mroesner/Nb3X8_cDFPT/pp/Br_ONCV_PBE-1.2.upf
     MD5 check sum: 5b50323dbf1c0ae0ed9e7f1e72c3f86c
     Pseudo is Norm-conserving, Zval =  7.0
     Generated using ONCVPSP code by D. R. Hamann
     Using radial grid of  602 points,  6 beta functions with: 
                l(1) =   0
                l(2) =   0
                l(3) =   1
                l(4) =   1
                l(5) =   2
                l(6) =   2

     Mode symmetry, C_3v (3m)   point group:


     Atomic displacements:
     There are   22 irreducible representations

     Representation     1      1 modes -  To be done

     Representation     2      1 modes -  To be done

     Representation     3      1 modes -  To be done

     Representation     4      1 modes -  To be done

     Representation     5      1 modes -  To be done

     Representation     6      1 modes -  To be done

     Representation     7      1 modes -  To be done

     Representation     8      1 modes -  To be done

     Representation     9      1 modes -  To be done

     Representation    10      1 modes -  To be done

     Representation    11      1 modes -  To be done

     Representation    12      2 modes -  To be done

     Representation    13      2 modes -  To be done

     Representation    14      2 modes -  To be done

     Representation    15      2 modes -  To be done

     Representation    16      2 modes -  To be done

     Representation    17      2 modes -  To be done

     Representation    18      2 modes -  To be done

     Representation    19      2 modes -  To be done

     Representation    20      2 modes -  To be done

     Representation    21      2 modes -  To be done

     Representation    22      2 modes -  To be done



     Alpha used in Ewald sum =   2.8000

     Reading Grimme-D3 Hessian from file: ./out/Nb3Br8.hess

     Number of cells replicated along each semiaxis:    9   9   2
     Number of cells in the supercell:      1805
     Number of atoms in the supercell:     19855
     Hessian allocation dimension:   1965645

     Grimme-D3 Hessian read 

     Computing dynamical matrix for q:     0.000000    0.000000    0.000000

     Writing Hessian on file dynamical.false.dat

     Dynamical matrix computed
     PHONON       :     29.35s CPU     92.34s WALL



     Representation #   1 mode #   1

     Self-consistent Calculation

     Pert. #  1: Fermi energy shift (Ry) =    -1.3838E-01     6.3527E-22

      iter #   1 total cpu time :   156.1 secs   av.it.:   8.0
      thresh= 1.000E-02 alpha_mix =  0.700 |ddv_scf|^2 =  3.163E-08

     Pert. #  1: Fermi energy shift (Ry) =     4.5684E-01    -2.0680E-25

      iter #   2 total cpu time :   265.2 secs   av.it.:  23.3
      thresh= 1.778E-05 alpha_mix =  0.700 |ddv_scf|^2 =  1.520E-07

     Pert. #  1: Fermi energy shift (Ry) =    -7.2776E-02    -8.2718E-25

      iter #   3 total cpu time :   324.9 secs   av.it.:  20.6
      thresh= 3.899E-05 alpha_mix =  0.700 |ddv_scf|^2 =  8.052E-09

     Pert. #  1: Fermi energy shift (Ry) =    -3.1617E-02    -6.2039E-25

      iter #   4 total cpu time :   359.7 secs   av.it.:  20.7
      thresh= 8.974E-06 alpha_mix =  0.700 |ddv_scf|^2 =  4.324E-10

     Pert. #  1: Fermi energy shift (Ry) =     1.4973E-02     2.0680E-25

      iter #   5 total cpu time :   412.8 secs   av.it.:  21.3
      thresh= 2.079E-06 alpha_mix =  0.700 |ddv_scf|^2 =  2.869E-11

     Pert. #  1: Fermi energy shift (Ry) =     6.7197E-03    -1.2925E-26

      iter #   6 total cpu time :   439.5 secs   av.it.:  21.9
      thresh= 5.356E-07 alpha_mix =  0.700 |ddv_scf|^2 =  2.449E-12

     Pert. #  1: Fermi energy shift (Ry) =     7.8881E-03    -2.4234E-27

      iter #   7 total cpu time :   463.3 secs   av.it.:  22.4
      thresh= 1.565E-07 alpha_mix =  0.700 |ddv_scf|^2 =  1.231E-12

     Pert. #  1: Fermi energy shift (Ry) =     4.8395E-03     1.6156E-27

      iter #   8 total cpu time :   493.3 secs   av.it.:  22.7
      thresh= 1.109E-07 alpha_mix =  0.700 |ddv_scf|^2 =  2.451E-13

     Pert. #  1: Fermi energy shift (Ry) =     5.2403E-03     4.8468E-27

      iter #   9 total cpu time :   517.1 secs   av.it.:  21.7
      thresh= 4.951E-08 alpha_mix =  0.700 |ddv_scf|^2 =  1.950E-14

     Pert. #  1: Fermi energy shift (Ry) =     5.6578E-03    -8.0779E-28

      iter #  10 total cpu time :   539.9 secs   av.it.:  23.3
      thresh= 1.396E-08 alpha_mix =  0.700 |ddv_scf|^2 =  6.586E-15

     Pert. #  1: Fermi energy shift (Ry) =     5.4896E-03    -1.5146E-28

      iter #  11 total cpu time :   563.3 secs   av.it.:  22.1
      thresh= 8.115E-09 alpha_mix =  0.700 |ddv_scf|^2 =  1.006E-14

     Pert. #  1: Fermi energy shift (Ry) =     5.5305E-03     8.0779E-28

      iter #  12 total cpu time :   584.6 secs   av.it.:  19.6
      thresh= 1.003E-08 alpha_mix =  0.700 |ddv_scf|^2 =  1.131E-15

     Pert. #  1: Fermi energy shift (Ry) =     5.4912E-03    -1.5146E-28

      iter #  13 total cpu time :   609.4 secs   av.it.:  22.3
      thresh= 3.363E-09 alpha_mix =  0.700 |ddv_scf|^2 =  5.486E-17

     End of self-consistent calculation

     Convergence has been achieved 


     Representation #   2 mode #   2

     Self-consistent Calculation

     Pert. #  1: Fermi energy shift (Ry) =    -1.0042E-02     2.1176E-22

      iter #   1 total cpu time :   837.1 secs   av.it.:   8.0
      thresh= 1.000E-02 alpha_mix =  0.700 |ddv_scf|^2 =  4.575E-08

     Pert. #  1: Fermi energy shift (Ry) =    -1.8837E-01     8.2718E-25

      iter #   2 total cpu time :   929.1 secs   av.it.:  23.0
      thresh= 2.139E-05 alpha_mix =  0.700 |ddv_scf|^2 =  2.618E-07

     Pert. #  1: Fermi energy shift (Ry) =     7.6358E-02    -8.2718E-25

      iter #   3 total cpu time :   991.1 secs   av.it.:  19.6
      thresh= 5.117E-05 alpha_mix =  0.700 |ddv_scf|^2 =  1.134E-08

     Pert. #  1: Fermi energy shift (Ry) =     3.7995E-02    -2.0680E-25

      iter #   4 total cpu time :  1075.6 secs   av.it.:  20.7
      thresh= 1.065E-05 alpha_mix =  0.700 |ddv_scf|^2 =  2.890E-10

     Pert. #  1: Fermi energy shift (Ry) =    -1.5788E-02     2.5849E-26

      iter #   5 total cpu time :  1147.1 secs   av.it.:  22.3
      thresh= 1.700E-06 alpha_mix =  0.700 |ddv_scf|^2 =  7.076E-11

     Pert. #  1: Fermi energy shift (Ry) =    -9.2093E-04     5.1699E-26

      iter #   6 total cpu time :  1175.1 secs   av.it.:  21.3
      thresh= 8.412E-07 alpha_mix =  0.700 |ddv_scf|^2 =  2.911E-12

     Pert. #  1: Fermi energy shift (Ry) =    -1.7551E-03    -1.6156E-27

      iter #   7 total cpu time :  1201.0 secs   av.it.:  22.4
      thresh= 1.706E-07 alpha_mix =  0.700 |ddv_scf|^2 =  8.500E-13

     Pert. #  1: Fermi energy shift (Ry) =    -6.1389E-04     3.2312E-27

      iter #   8 total cpu time :  1241.1 secs   av.it.:  23.1
      thresh= 9.220E-08 alpha_mix =  0.700 |ddv_scf|^2 =  5.204E-13

     Pert. #  1: Fermi energy shift (Ry) =    -1.1452E-03    -1.2622E-29

      iter #   9 total cpu time :  1259.7 secs   av.it.:  21.6
      thresh= 7.214E-08 alpha_mix =  0.700 |ddv_scf|^2 =  1.832E-14

     Pert. #  1: Fermi energy shift (Ry) =    -1.5133E-03     4.0390E-28

      iter #  10 total cpu time :  1285.5 secs   av.it.:  23.3
      thresh= 1.354E-08 alpha_mix =  0.700 |ddv_scf|^2 =  2.678E-14

     Pert. #  1: Fermi energy shift (Ry) =    -1.1697E-03     4.0390E-28

      iter #  11 total cpu time :  1312.0 secs   av.it.:  21.3
      thresh= 1.636E-08 alpha_mix =  0.700 |ddv_scf|^2 =  5.985E-15

     Pert. #  1: Fermi energy shift (Ry) =    -1.3576E-03     5.0487E-29

      iter #  12 total cpu time :  1349.9 secs   av.it.:  21.3
      thresh= 7.736E-09 alpha_mix =  0.700 |ddv_scf|^2 =  2.260E-15

     Pert. #  1: Fermi energy shift (Ry) =    -1.2736E-03     2.0195E-28

      iter #  13 total cpu time :  1365.9 secs   av.it.:  21.7
      thresh= 4.754E-09 alpha_mix =  0.700 |ddv_scf|^2 =  4.148E-17

     End of self-consistent calculation

     Convergence has been achieved 


     Representation #   3 mode #   3

     Self-consistent Calculation

     Pert. #  1: Fermi energy shift (Ry) =     6.3164E-01     3.1764E-22

      iter #   1 total cpu time :  1465.0 secs   av.it.:   8.7
      thresh= 1.000E-02 alpha_mix =  0.700 |ddv_scf|^2 =  4.926E-07

     Pert. #  1: Fermi energy shift (Ry) =    -1.5742E+00     8.2718E-25

      iter #   2 total cpu time :  1514.8 secs   av.it.:  22.1
      thresh= 7.019E-05 alpha_mix =  0.700 |ddv_scf|^2 =  4.342E-06

     Pert. #  1: Fermi energy shift (Ry) =    -1.9659E-01     6.6174E-24

      iter #   3 total cpu time :  1567.8 secs   av.it.:  19.0
      thresh= 2.084E-04 alpha_mix =  0.700 |ddv_scf|^2 =  2.499E-08

     Pert. #  1: Fermi energy shift (Ry) =     6.6666E-02    -1.6544E-24

      iter #   4 total cpu time :  1678.7 secs   av.it.:  20.3
      thresh= 1.581E-05 alpha_mix =  0.700 |ddv_scf|^2 =  2.674E-09

     Pert. #  1: Fermi energy shift (Ry) =    -5.3670E-02    -1.0340E-25

      iter #   5 total cpu time :  1736.2 secs   av.it.:  21.9
      thresh= 5.171E-06 alpha_mix =  0.700 |ddv_scf|^2 =  1.405E-10

     Pert. #  1: Fermi energy shift (Ry) =    -2.8860E-02     2.5849E-26

      iter #   6 total cpu time :  1756.0 secs   av.it.:  22.0
      thresh= 1.185E-06 alpha_mix =  0.700 |ddv_scf|^2 =  1.064E-11

     Pert. #  1: Fermi energy shift (Ry) =    -3.0166E-02     2.4234E-27

      iter #   7 total cpu time :  1779.1 secs   av.it.:  21.9
      thresh= 3.262E-07 alpha_mix =  0.700 |ddv_scf|^2 =  8.570E-12

     Pert. #  1: Fermi energy shift (Ry) =    -3.1890E-02    -1.2925E-26

      iter #   8 total cpu time :  1820.7 secs   av.it.:  21.0
      thresh= 2.928E-07 alpha_mix =  0.700 |ddv_scf|^2 =  1.686E-14

     Pert. #  1: Fermi energy shift (Ry) =    -3.1672E-02     8.0779E-28

      iter #   9 total cpu time :  1846.2 secs   av.it.:  24.3
      thresh= 1.298E-08 alpha_mix =  0.700 |ddv_scf|^2 =  1.211E-14

     Pert. #  1: Fermi energy shift (Ry) =    -3.1910E-02     1.6156E-27

      iter #  10 total cpu time :  1869.9 secs   av.it.:  22.4
      thresh= 1.100E-08 alpha_mix =  0.700 |ddv_scf|^2 =  2.443E-15

     Pert. #  1: Fermi energy shift (Ry) =    -3.1861E-02     1.2117E-27

      iter #  11 total cpu time :  1901.1 secs   av.it.:  21.6
      thresh= 4.942E-09 alpha_mix =  0.700 |ddv_scf|^2 =  2.355E-16

     Pert. #  1: Fermi energy shift (Ry) =    -3.1834E-02     8.0779E-28

      iter #  12 total cpu time :  1926.2 secs   av.it.:  21.6
      thresh= 1.535E-09 alpha_mix =  0.700 |ddv_scf|^2 =  3.754E-17

     End of self-consistent calculation

     Convergence has been achieved 


     Representation #   4 mode #   4

     Self-consistent Calculation

     Pert. #  1: Fermi energy shift (Ry) =     4.4260E-02     2.1176E-22

      iter #   1 total cpu time :  2121.2 secs   av.it.:  10.0
      thresh= 1.000E-02 alpha_mix =  0.700 |ddv_scf|^2 =  2.682E-06

     Pert. #  1: Fermi energy shift (Ry) =    -3.2116E-01    -1.3235E-23

      iter #   2 total cpu time :  2217.5 secs   av.it.:  21.9
      thresh= 1.638E-04 alpha_mix =  0.700 |ddv_scf|^2 =  3.007E-05

     Pert. #  1: Fermi energy shift (Ry) =    -1.0198E-01     1.9852E-23

      iter #   3 total cpu time :  2262.0 secs   av.it.:  18.1
      thresh= 5.484E-04 alpha_mix =  0.700 |ddv_scf|^2 =  1.995E-08

     Pert. #  1: Fermi energy shift (Ry) =     1.1496E-01    -1.2408E-24

      iter #   4 total cpu time :  2381.7 secs   av.it.:  22.1
      thresh= 1.412E-05 alpha_mix =  0.700 |ddv_scf|^2 =  3.132E-09

     Pert. #  1: Fermi energy shift (Ry) =    -7.0409E-02     5.1699E-26

      iter #   5 total cpu time :  2446.8 secs   av.it.:  21.9
      thresh= 5.596E-06 alpha_mix =  0.700 |ddv_scf|^2 =  7.564E-10

     Pert. #  1: Fermi energy shift (Ry) =    -2.1295E-02    -2.0680E-25

      iter #   6 total cpu time :  2468.3 secs   av.it.:  21.3
      thresh= 2.750E-06 alpha_mix =  0.700 |ddv_scf|^2 =  3.706E-12

     Pert. #  1: Fermi energy shift (Ry) =    -2.1128E-02    -1.2925E-26

      iter #   7 total cpu time :  2496.4 secs   av.it.:  22.9
      thresh= 1.925E-07 alpha_mix =  0.700 |ddv_scf|^2 =  7.395E-13

     Pert. #  1: Fermi energy shift (Ry) =    -2.0869E-02    -9.6935E-27

      iter #   8 total cpu time :  2515.7 secs   av.it.:  23.0
      thresh= 8.599E-08 alpha_mix =  0.700 |ddv_scf|^2 =  9.157E-13

     Pert. #  1: Fermi energy shift (Ry) =    -2.0571E-02    -2.0195E-28

      iter #   9 total cpu time :  2533.4 secs   av.it.:  20.9
      thresh= 9.569E-08 alpha_mix =  0.700 |ddv_scf|^2 =  1.656E-13

     Pert. #  1: Fermi energy shift (Ry) =    -2.0901E-02    -4.8468E-27

      iter #  10 total cpu time :  2559.1 secs   av.it.:  20.9
      thresh= 4.069E-08 alpha_mix =  0.700 |ddv_scf|^2 =  5.790E-14

     Pert. #  1: Fermi energy shift (Ry) =    -1.9423E-02    -2.4234E-27

      iter #  11 total cpu time :  2585.1 secs   av.it.:  23.3
      thresh= 2.406E-08 alpha_mix =  0.700 |ddv_scf|^2 =  2.665E-13

     Pert. #  1: Fermi energy shift (Ry) =    -2.0397E-02    -2.0195E-28

      iter #  12 total cpu time :  2612.7 secs   av.it.:  21.0
      thresh= 5.162E-08 alpha_mix =  0.700 |ddv_scf|^2 =  1.039E-15

     Pert. #  1: Fermi energy shift (Ry) =    -2.0414E-02    -1.2117E-27

      iter #  13 total cpu time :  2634.2 secs   av.it.:  23.0
      thresh= 3.224E-09 alpha_mix =  0.700 |ddv_scf|^2 =  1.242E-15

     Pert. #  1: Fermi energy shift (Ry) =    -2.0379E-02    -1.6156E-27

      iter #  14 total cpu time :  2663.9 secs   av.it.:  21.3
      thresh= 3.524E-09 alpha_mix =  0.700 |ddv_scf|^2 =  3.779E-17

     End of self-consistent calculation

     Convergence has been achieved 


     Representation #   5 mode #   5

     Self-consistent Calculation

     Pert. #  1: Fermi energy shift (Ry) =     4.8745E-01    -1.0588E-22

      iter #   1 total cpu time :  2798.8 secs   av.it.:   8.0
      thresh= 1.000E-02 alpha_mix =  0.700 |ddv_scf|^2 =  1.346E-07

     Pert. #  1: Fermi energy shift (Ry) =    -1.1142E+00     3.3087E-24

      iter #   2 total cpu time :  2854.1 secs   av.it.:  22.4
      thresh= 3.669E-05 alpha_mix =  0.700 |ddv_scf|^2 =  8.718E-07

     Pert. #  1: Fermi energy shift (Ry) =    -2.8479E-02    -3.3087E-24

      iter #   3 total cpu time :  2929.7 secs   av.it.:  19.7
      thresh= 9.337E-05 alpha_mix =  0.700 |ddv_scf|^2 =  1.147E-08

     Pert. #  1: Fermi energy shift (Ry) =     7.5438E-02     5.1699E-26

      iter #   4 total cpu time :  2979.2 secs   av.it.:  19.9
      thresh= 1.071E-05 alpha_mix =  0.700 |ddv_scf|^2 =  1.305E-09

     Pert. #  1: Fermi energy shift (Ry) =    -1.9652E-02     2.5849E-26

      iter #   5 total cpu time :  3028.4 secs   av.it.:  22.0
      thresh= 3.613E-06 alpha_mix =  0.700 |ddv_scf|^2 =  4.997E-11

     Pert. #  1: Fermi energy shift (Ry) =    -8.7943E-03     3.2312E-27

      iter #   6 total cpu time :  3056.1 secs   av.it.:  22.1
      thresh= 7.069E-07 alpha_mix =  0.700 |ddv_scf|^2 =  3.668E-12

     Pert. #  1: Fermi energy shift (Ry) =    -4.6462E-03     1.6156E-27

      iter #   7 total cpu time :  3092.3 secs   av.it.:  23.0
      thresh= 1.915E-07 alpha_mix =  0.700 |ddv_scf|^2 =  2.509E-12

     Pert. #  1: Fermi energy shift (Ry) =    -6.4949E-03    -1.6156E-27

      iter #   8 total cpu time :  3119.9 secs   av.it.:  22.3
      thresh= 1.584E-07 alpha_mix =  0.700 |ddv_scf|^2 =  1.021E-13

     Pert. #  1: Fermi energy shift (Ry) =    -6.5765E-03     3.2312E-27

      iter #   9 total cpu time :  3137.9 secs   av.it.:  23.4
      thresh= 3.195E-08 alpha_mix =  0.700 |ddv_scf|^2 =  2.087E-13

     Pert. #  1: Fermi energy shift (Ry) =    -7.4258E-03     1.6156E-27

      iter #  10 total cpu time :  3168.9 secs   av.it.:  21.9
      thresh= 4.569E-08 alpha_mix =  0.700 |ddv_scf|^2 =  2.301E-13

     Pert. #  1: Fermi energy shift (Ry) =    -6.8076E-03     1.6156E-27

      iter #  11 total cpu time :  3206.1 secs   av.it.:  20.1
      thresh= 4.797E-08 alpha_mix =  0.700 |ddv_scf|^2 =  1.080E-15

     Pert. #  1: Fermi energy shift (Ry) =    -6.6937E-03     1.6156E-27

      iter #  12 total cpu time :  3229.1 secs   av.it.:  22.6
      thresh= 3.286E-09 alpha_mix =  0.700 |ddv_scf|^2 =  4.685E-16

     Pert. #  1: Fermi energy shift (Ry) =    -6.7220E-03     1.6156E-27

      iter #  13 total cpu time :  3246.3 secs   av.it.:  21.1
      thresh= 2.164E-09 alpha_mix =  0.700 |ddv_scf|^2 =  4.589E-17

     End of self-consistent calculation

     Convergence has been achieved 


     Representation #   6 mode #   6

     Self-consistent Calculation

     Pert. #  1: Fermi energy shift (Ry) =     5.6253E-01     4.2352E-22

      iter #   1 total cpu time :  3353.4 secs   av.it.:   8.6
      thresh= 1.000E-02 alpha_mix =  0.700 |ddv_scf|^2 =  5.241E-07

     Pert. #  1: Fermi energy shift (Ry) =    -1.2418E+00    -3.3087E-24

      iter #   2 total cpu time :  3394.6 secs   av.it.:  22.0
      thresh= 7.239E-05 alpha_mix =  0.700 |ddv_scf|^2 =  4.442E-06

     Pert. #  1: Fermi energy shift (Ry) =    -1.9859E-01    -6.6174E-24

      iter #   3 total cpu time :  3460.6 secs   av.it.:  18.6
      thresh= 2.108E-04 alpha_mix =  0.700 |ddv_scf|^2 =  2.303E-08

     Pert. #  1: Fermi energy shift (Ry) =     5.8077E-02    -4.1359E-25

      iter #   4 total cpu time :  3587.1 secs   av.it.:  20.3
      thresh= 1.518E-05 alpha_mix =  0.700 |ddv_scf|^2 =  1.094E-09

     Pert. #  1: Fermi energy shift (Ry) =    -5.4327E-02    -2.0680E-25

      iter #   5 total cpu time :  3652.4 secs   av.it.:  22.9
      thresh= 3.307E-06 alpha_mix =  0.700 |ddv_scf|^2 =  3.758E-10

     Pert. #  1: Fermi energy shift (Ry) =    -1.0000E-02     2.5849E-26

      iter #   6 total cpu time :  3675.8 secs   av.it.:  22.0
      thresh= 1.939E-06 alpha_mix =  0.700 |ddv_scf|^2 =  5.344E-11

     Pert. #  1: Fermi energy shift (Ry) =    -8.6269E-03     6.4623E-27

      iter #   7 total cpu time :  3701.5 secs   av.it.:  21.6
      thresh= 7.310E-07 alpha_mix =  0.700 |ddv_scf|^2 =  1.141E-11

     Pert. #  1: Fermi energy shift (Ry) =    -1.0614E-02     6.4623E-27

      iter #   8 total cpu time :  3725.3 secs   av.it.:  22.0
      thresh= 3.378E-07 alpha_mix =  0.700 |ddv_scf|^2 =  1.234E-12

     Pert. #  1: Fermi energy shift (Ry) =    -1.0215E-02    -1.6156E-27

      iter #   9 total cpu time :  3745.9 secs   av.it.:  22.3
      thresh= 1.111E-07 alpha_mix =  0.700 |ddv_scf|^2 =  8.521E-13

     Pert. #  1: Fermi energy shift (Ry) =    -1.0439E-02     1.2925E-26

      iter #  10 total cpu time :  3778.8 secs   av.it.:  21.1
      thresh= 9.231E-08 alpha_mix =  0.700 |ddv_scf|^2 =  5.153E-14

     Pert. #  1: Fermi energy shift (Ry) =    -9.4896E-03     3.2312E-27

      iter #  11 total cpu time :  3818.4 secs   av.it.:  22.7
      thresh= 2.270E-08 alpha_mix =  0.700 |ddv_scf|^2 =  6.526E-14

     Pert. #  1: Fermi energy shift (Ry) =    -1.0120E-02     3.2312E-27

      iter #  12 total cpu time :  3841.1 secs   av.it.:  21.3
      thresh= 2.555E-08 alpha_mix =  0.700 |ddv_scf|^2 =  3.210E-16

     Pert. #  1: Fermi energy shift (Ry) =    -1.0098E-02     3.2312E-27

      iter #  13 total cpu time :  3859.2 secs   av.it.:  22.1
      thresh= 1.792E-09 alpha_mix =  0.700 |ddv_scf|^2 =  3.488E-17

     End of self-consistent calculation

     Convergence has been achieved 


     Representation #   7 mode #   7

     Self-consistent Calculation

     Pert. #  1: Fermi energy shift (Ry) =    -2.7343E-01    -1.3235E-23

      iter #   1 total cpu time :  3940.4 secs   av.it.:   8.0
      thresh= 1.000E-02 alpha_mix =  0.700 |ddv_scf|^2 =  1.874E-07

     Pert. #  1: Fermi energy shift (Ry) =     6.5437E-01    -8.2718E-25

      iter #   2 total cpu time :  3962.9 secs   av.it.:  22.0
      thresh= 4.329E-05 alpha_mix =  0.700 |ddv_scf|^2 =  1.698E-06

     Pert. #  1: Fermi energy shift (Ry) =     8.2450E-02    -8.2718E-25

      iter #   3 total cpu time :  3990.4 secs   av.it.:  18.9
      thresh= 1.303E-04 alpha_mix =  0.700 |ddv_scf|^2 =  7.207E-09

     Pert. #  1: Fermi energy shift (Ry) =    -4.6421E-02    -2.0680E-25

      iter #   4 total cpu time :  4032.4 secs   av.it.:  20.7
      thresh= 8.490E-06 alpha_mix =  0.700 |ddv_scf|^2 =  5.171E-10

     Pert. #  1: Fermi energy shift (Ry) =     2.8295E-02    -1.0340E-25

      iter #   5 total cpu time :  4125.7 secs   av.it.:  22.4
      thresh= 2.274E-06 alpha_mix =  0.700 |ddv_scf|^2 =  1.332E-10

     Pert. #  1: Fermi energy shift (Ry) =     4.8982E-03    -6.4623E-27

      iter #   6 total cpu time :  4143.0 secs   av.it.:  21.9
      thresh= 1.154E-06 alpha_mix =  0.700 |ddv_scf|^2 =  1.026E-11

     Pert. #  1: Fermi energy shift (Ry) =     3.3423E-03     3.2312E-27

      iter #   7 total cpu time :  4167.1 secs   av.it.:  21.7
      thresh= 3.203E-07 alpha_mix =  0.700 |ddv_scf|^2 =  1.127E-12

     Pert. #  1: Fermi energy shift (Ry) =     3.4656E-03     3.2312E-27

      iter #   8 total cpu time :  4197.3 secs   av.it.:  22.1
      thresh= 1.062E-07 alpha_mix =  0.700 |ddv_scf|^2 =  7.865E-14

     Pert. #  1: Fermi energy shift (Ry) =     3.2272E-03    -8.0779E-28

      iter #   9 total cpu time :  4231.2 secs   av.it.:  23.4
      thresh= 2.804E-08 alpha_mix =  0.700 |ddv_scf|^2 =  1.366E-13

     Pert. #  1: Fermi energy shift (Ry) =     3.3563E-03     4.0390E-28

      iter #  10 total cpu time :  4278.9 secs   av.it.:  20.4
      thresh= 3.695E-08 alpha_mix =  0.700 |ddv_scf|^2 =  1.897E-15

     Pert. #  1: Fermi energy shift (Ry) =     3.1396E-03    -4.0390E-28

      iter #  11 total cpu time :  4322.8 secs   av.it.:  23.6
      thresh= 4.356E-09 alpha_mix =  0.700 |ddv_scf|^2 =  2.959E-15

     Pert. #  1: Fermi energy shift (Ry) =     3.3140E-03    -2.0195E-28

      iter #  12 total cpu time :  4363.7 secs   av.it.:  22.3
      thresh= 5.439E-09 alpha_mix =  0.700 |ddv_scf|^2 =  3.144E-16

     Pert. #  1: Fermi energy shift (Ry) =     3.2787E-03    -4.0390E-28

      iter #  13 total cpu time :  4381.3 secs   av.it.:  22.4
      thresh= 1.773E-09 alpha_mix =  0.700 |ddv_scf|^2 =  3.883E-18

     End of self-consistent calculation

     Convergence has been achieved 


     Representation #   8 mode #   8

     Self-consistent Calculation

     Pert. #  1: Fermi energy shift (Ry) =    -4.6128E-01     2.1176E-22

      iter #   1 total cpu time :  4569.5 secs   av.it.:  10.0
      thresh= 1.000E-02 alpha_mix =  0.700 |ddv_scf|^2 =  1.152E-07

     Pert. #  1: Fermi energy shift (Ry) =     1.0839E+00    -2.5849E-26

      iter #   2 total cpu time :  4608.0 secs   av.it.:  24.6
      thresh= 3.394E-05 alpha_mix =  0.700 |ddv_scf|^2 =  3.154E-07

     Pert. #  1: Fermi energy shift (Ry) =    -4.8286E-01     8.2718E-25

      iter #   3 total cpu time :  4674.5 secs   av.it.:  22.3
      thresh= 5.616E-05 alpha_mix =  0.700 |ddv_scf|^2 =  4.321E-08

     Pert. #  1: Fermi energy shift (Ry) =    -6.3779E-02    -1.6544E-24

      iter #   4 total cpu time :  4711.7 secs   av.it.:  21.4
      thresh= 2.079E-05 alpha_mix =  0.700 |ddv_scf|^2 =  9.185E-10

     Pert. #  1: Fermi energy shift (Ry) =    -4.4056E-02     1.2925E-26

      iter #   5 total cpu time :  4753.2 secs   av.it.:  21.0
      thresh= 3.031E-06 alpha_mix =  0.700 |ddv_scf|^2 =  2.967E-10

     Pert. #  1: Fermi energy shift (Ry) =    -4.4378E-02     5.1699E-26

      iter #   6 total cpu time :  4802.2 secs   av.it.:  20.7
      thresh= 1.723E-06 alpha_mix =  0.700 |ddv_scf|^2 =  6.619E-12

     Pert. #  1: Fermi energy shift (Ry) =    -5.1978E-02    -3.2312E-27

      iter #   7 total cpu time :  4832.3 secs   av.it.:  23.3
      thresh= 2.573E-07 alpha_mix =  0.700 |ddv_scf|^2 =  4.224E-12

     Pert. #  1: Fermi energy shift (Ry) =    -4.7595E-02    -6.4623E-27

      iter #   8 total cpu time :  4856.3 secs   av.it.:  22.1
      thresh= 2.055E-07 alpha_mix =  0.700 |ddv_scf|^2 =  2.493E-13

     Pert. #  1: Fermi energy shift (Ry) =    -4.7495E-02     8.0779E-28

      iter #   9 total cpu time :  4876.8 secs   av.it.:  23.7
      thresh= 4.993E-08 alpha_mix =  0.700 |ddv_scf|^2 =  2.414E-13

     Pert. #  1: Fermi energy shift (Ry) =    -4.7678E-02     1.6156E-27

      iter #  10 total cpu time :  4902.0 secs   av.it.:  22.3
      thresh= 4.913E-08 alpha_mix =  0.700 |ddv_scf|^2 =  1.397E-14

     Pert. #  1: Fermi energy shift (Ry) =    -4.7896E-02     8.0779E-28

      iter #  11 total cpu time :  4956.7 secs   av.it.:  22.9
      thresh= 1.182E-08 alpha_mix =  0.700 |ddv_scf|^2 =  1.142E-14

     Pert. #  1: Fermi energy shift (Ry) =    -4.8016E-02     8.0779E-28

      iter #  12 total cpu time :  4980.9 secs   av.it.:  21.4
      thresh= 1.069E-08 alpha_mix =  0.700 |ddv_scf|^2 =  5.107E-15

     Pert. #  1: Fermi energy shift (Ry) =    -4.7882E-02     4.0390E-28

      iter #  13 total cpu time :  5002.4 secs   av.it.:  21.4
      thresh= 7.146E-09 alpha_mix =  0.700 |ddv_scf|^2 =  9.366E-17

     End of self-consistent calculation

     Convergence has been achieved 


     Representation #   9 mode #   9

     Self-consistent Calculation

     Pert. #  1: Fermi energy shift (Ry) =     2.2588E-21     7.8366E-39

      iter #   1 total cpu time :  5080.2 secs   av.it.:   9.0
      thresh= 1.000E-02 alpha_mix =  0.700 |ddv_scf|^2 =  9.686E-09

     Pert. #  1: Fermi energy shift (Ry) =     1.1294E-21    -3.0612E-41

      iter #   2 total cpu time :  5147.3 secs   av.it.:  23.4
      thresh= 9.842E-06 alpha_mix =  0.700 |ddv_scf|^2 =  1.819E-09

     Pert. #  1: Fermi energy shift (Ry) =     2.2588E-21     3.8265E-42

      iter #   3 total cpu time :  5194.4 secs   av.it.:  22.9
      thresh= 4.265E-06 alpha_mix =  0.700 |ddv_scf|^2 =  3.949E-12

     Pert. #  1: Fermi energy shift (Ry) =     2.2588E-21     4.7831E-43

      iter #   4 total cpu time :  5259.3 secs   av.it.:  23.9
      thresh= 1.987E-07 alpha_mix =  0.700 |ddv_scf|^2 =  1.686E-13

     Pert. #  1: Fermi energy shift (Ry) =     2.2588E-21    -2.9894E-44

      iter #   5 total cpu time :  5339.7 secs   av.it.:  22.7
      thresh= 4.107E-08 alpha_mix =  0.700 |ddv_scf|^2 =  1.565E-15

     Pert. #  1: Fermi energy shift (Ry) =     2.2588E-21     1.1958E-43

      iter #   6 total cpu time :  5359.4 secs   av.it.:  23.4
      thresh= 3.956E-09 alpha_mix =  0.700 |ddv_scf|^2 =  6.603E-17

     End of self-consistent calculation

     Convergence has been achieved 


     Representation #  10 mode #  10

     Self-consistent Calculation

     Pert. #  1: Fermi energy shift (Ry) =     0.0000E+00     0.0000E+00

      iter #   1 total cpu time :  5438.2 secs   av.it.:   7.0
      thresh= 1.000E-02 alpha_mix =  0.700 |ddv_scf|^2 =  1.425E-09

     Pert. #  1: Fermi energy shift (Ry) =     0.0000E+00     0.0000E+00

      iter #   2 total cpu time :  5467.4 secs   av.it.:  22.9
      thresh= 3.775E-06 alpha_mix =  0.700 |ddv_scf|^2 =  2.100E-10

     Pert. #  1: Fermi energy shift (Ry) =    -1.1294E-21     0.0000E+00

      iter #   3 total cpu time :  5502.6 secs   av.it.:  22.9
      thresh= 1.449E-06 alpha_mix =  0.700 |ddv_scf|^2 =  1.067E-12

     Pert. #  1: Fermi energy shift (Ry) =    -1.1294E-21     0.0000E+00

      iter #   4 total cpu time :  5567.9 secs   av.it.:  23.1
      thresh= 1.033E-07 alpha_mix =  0.700 |ddv_scf|^2 =  8.260E-14

     Pert. #  1: Fermi energy shift (Ry) =    -1.1294E-21     0.0000E+00

      iter #   5 total cpu time :  5632.7 secs   av.it.:  22.4
      thresh= 2.874E-08 alpha_mix =  0.700 |ddv_scf|^2 =  1.505E-15

     Pert. #  1: Fermi energy shift (Ry) =    -1.1294E-21     0.0000E+00

      iter #   6 total cpu time :  5649.5 secs   av.it.:  23.4
      thresh= 3.879E-09 alpha_mix =  0.700 |ddv_scf|^2 =  7.171E-17

     End of self-consistent calculation

     Convergence has been achieved 


     Representation #  11 mode #  11

     Self-consistent Calculation

     Pert. #  1: Fermi energy shift (Ry) =    -3.3881E-21     0.0000E+00

      iter #   1 total cpu time :  5727.3 secs   av.it.:   7.0
      thresh= 1.000E-02 alpha_mix =  0.700 |ddv_scf|^2 =  1.257E-09

     Pert. #  1: Fermi energy shift (Ry) =    -2.8234E-22     0.0000E+00

      iter #   2 total cpu time :  5759.6 secs   av.it.:  23.1
      thresh= 3.545E-06 alpha_mix =  0.700 |ddv_scf|^2 =  1.529E-10

     Pert. #  1: Fermi energy shift (Ry) =    -5.6469E-22     0.0000E+00

      iter #   3 total cpu time :  5812.8 secs   av.it.:  23.1
      thresh= 1.237E-06 alpha_mix =  0.700 |ddv_scf|^2 =  1.027E-12

     Pert. #  1: Fermi energy shift (Ry) =    -5.6469E-22     0.0000E+00

      iter #   4 total cpu time :  5918.0 secs   av.it.:  23.3
      thresh= 1.013E-07 alpha_mix =  0.700 |ddv_scf|^2 =  7.442E-14

     Pert. #  1: Fermi energy shift (Ry) =    -5.6469E-22     0.0000E+00

      iter #   5 total cpu time :  5967.6 secs   av.it.:  22.6
      thresh= 2.728E-08 alpha_mix =  0.700 |ddv_scf|^2 =  1.624E-15

     Pert. #  1: Fermi energy shift (Ry) =    -5.6469E-22     0.0000E+00

      iter #   6 total cpu time :  5993.6 secs   av.it.:  23.7
      thresh= 4.030E-09 alpha_mix =  0.700 |ddv_scf|^2 =  6.421E-17

     End of self-consistent calculation

     Convergence has been achieved 


     Representation #  12 modes #  12  13

     Self-consistent Calculation

     Pert. #  1: Fermi energy shift (Ry) =     3.4694E-18     1.2539E-37
     Pert. #  2: Fermi energy shift (Ry) =     5.7824E-19    -9.4040E-38

      iter #   1 total cpu time :  6152.5 secs   av.it.:   8.8
      thresh= 1.000E-02 alpha_mix =  0.700 |ddv_scf|^2 =  1.212E-08

     Pert. #  1: Fermi energy shift (Ry) =    -2.3130E-17     3.0612E-41
     Pert. #  2: Fermi energy shift (Ry) =    -1.3878E-17     1.9132E-41

      iter #   2 total cpu time :  6210.9 secs   av.it.:  27.4
      thresh= 1.101E-05 alpha_mix =  0.700 |ddv_scf|^2 =  4.222E-07

     Pert. #  1: Fermi energy shift (Ry) =     6.3607E-18     4.8979E-40
     Pert. #  2: Fermi energy shift (Ry) =     1.7347E-18    -3.6734E-40

      iter #   3 total cpu time :  6274.0 secs   av.it.:  22.6
      thresh= 6.498E-05 alpha_mix =  0.700 |ddv_scf|^2 =  5.491E-09

     Pert. #  1: Fermi energy shift (Ry) =     1.8070E-20    -1.2245E-40
     Pert. #  2: Fermi energy shift (Ry) =     4.5175E-21     0.0000E+00

      iter #   4 total cpu time :  6330.9 secs   av.it.:  23.6
      thresh= 7.410E-06 alpha_mix =  0.700 |ddv_scf|^2 =  1.904E-11

     Pert. #  1: Fermi energy shift (Ry) =    -1.4456E-19     5.7397E-42
     Pert. #  2: Fermi energy shift (Ry) =    -3.6140E-20     9.5662E-43

      iter #   5 total cpu time :  6391.9 secs   av.it.:  25.4
      thresh= 4.363E-07 alpha_mix =  0.700 |ddv_scf|^2 =  4.563E-12

     Pert. #  1: Fermi energy shift (Ry) =    -4.5175E-20    -1.4349E-42
     Pert. #  2: Fermi energy shift (Ry) =     9.0350E-21     1.4349E-42

      iter #   6 total cpu time :  6426.6 secs   av.it.:  24.4
      thresh= 2.136E-07 alpha_mix =  0.700 |ddv_scf|^2 =  8.405E-14

     Pert. #  1: Fermi energy shift (Ry) =    -4.5175E-20    -5.9789E-44
     Pert. #  2: Fermi energy shift (Ry) =     0.0000E+00    -7.4736E-43

      iter #   7 total cpu time :  6467.7 secs   av.it.:  25.5
      thresh= 2.899E-08 alpha_mix =  0.700 |ddv_scf|^2 =  5.144E-14

     Pert. #  1: Fermi energy shift (Ry) =    -7.2280E-20    -2.3915E-43
     Pert. #  2: Fermi energy shift (Ry) =    -2.2588E-20    -2.9894E-43

      iter #   8 total cpu time :  6502.1 secs   av.it.:  24.8
      thresh= 2.268E-08 alpha_mix =  0.700 |ddv_scf|^2 =  3.697E-15

     Pert. #  1: Fermi energy shift (Ry) =    -3.6140E-20     0.0000E+00
     Pert. #  2: Fermi energy shift (Ry) =    -1.3553E-20    -2.6905E-43

      iter #   9 total cpu time :  6535.1 secs   av.it.:  24.4
      thresh= 6.080E-09 alpha_mix =  0.700 |ddv_scf|^2 =  8.038E-17

     End of self-consistent calculation

     Convergence has been achieved 


     Representation #  13 modes #  14  15

     Self-consistent Calculation

     Pert. #  1: Fermi energy shift (Ry) =     2.8912E-19    -7.8366E-39
     Pert. #  2: Fermi energy shift (Ry) =     5.7824E-19     7.8366E-39

      iter #   1 total cpu time :  6645.3 secs   av.it.:   7.9
      thresh= 1.000E-02 alpha_mix =  0.700 |ddv_scf|^2 =  5.328E-09

     Pert. #  1: Fermi energy shift (Ry) =     0.0000E+00    -3.8265E-42
     Pert. #  2: Fermi energy shift (Ry) =    -6.9389E-18     7.6530E-42

      iter #   2 total cpu time :  6704.4 secs   av.it.:  27.0
      thresh= 7.299E-06 alpha_mix =  0.700 |ddv_scf|^2 =  1.688E-07

     Pert. #  1: Fermi energy shift (Ry) =     5.7824E-19     0.0000E+00
     Pert. #  2: Fermi energy shift (Ry) =     1.7347E-18     0.0000E+00

      iter #   3 total cpu time :  6745.5 secs   av.it.:  22.6
      thresh= 4.109E-05 alpha_mix =  0.700 |ddv_scf|^2 =  3.224E-09

     Pert. #  1: Fermi energy shift (Ry) =     9.0350E-21     0.0000E+00
     Pert. #  2: Fermi energy shift (Ry) =    -9.0350E-21     1.9132E-42

      iter #   4 total cpu time :  6810.2 secs   av.it.:  23.6
      thresh= 5.678E-06 alpha_mix =  0.700 |ddv_scf|^2 =  1.262E-11

     Pert. #  1: Fermi energy shift (Ry) =    -3.6140E-20    -2.3915E-43
     Pert. #  2: Fermi energy shift (Ry) =     1.8070E-20     4.7831E-43

      iter #   5 total cpu time :  6894.3 secs   av.it.:  25.1
      thresh= 3.552E-07 alpha_mix =  0.700 |ddv_scf|^2 =  1.547E-12

     Pert. #  1: Fermi energy shift (Ry) =    -2.2588E-21     0.0000E+00
     Pert. #  2: Fermi energy shift (Ry) =    -9.0350E-21     0.0000E+00

      iter #   6 total cpu time :  6942.2 secs   av.it.:  24.9
      thresh= 1.244E-07 alpha_mix =  0.700 |ddv_scf|^2 =  1.825E-13

     Pert. #  1: Fermi energy shift (Ry) =     4.5175E-21     1.4947E-44
     Pert. #  2: Fermi energy shift (Ry) =    -1.8070E-20     0.0000E+00

      iter #   7 total cpu time :  6999.4 secs   av.it.:  24.6
      thresh= 4.272E-08 alpha_mix =  0.700 |ddv_scf|^2 =  2.363E-14

     Pert. #  1: Fermi energy shift (Ry) =     0.0000E+00     0.0000E+00
     Pert. #  2: Fermi energy shift (Ry) =    -1.8070E-20     7.4736E-45

      iter #   8 total cpu time :  7035.4 secs   av.it.:  25.4
      thresh= 1.537E-08 alpha_mix =  0.700 |ddv_scf|^2 =  6.906E-15

     Pert. #  1: Fermi energy shift (Ry) =     9.0350E-21     0.0000E+00
     Pert. #  2: Fermi energy shift (Ry) =     4.5175E-21     0.0000E+00

      iter #   9 total cpu time :  7071.5 secs   av.it.:  24.2
      thresh= 8.310E-09 alpha_mix =  0.700 |ddv_scf|^2 =  1.144E-16

     Pert. #  1: Fermi energy shift (Ry) =    -4.5175E-21     0.0000E+00
     Pert. #  2: Fermi energy shift (Ry) =     1.3553E-20     0.0000E+00

      iter #  10 total cpu time :  7105.3 secs   av.it.:  25.6
      thresh= 1.070E-09 alpha_mix =  0.700 |ddv_scf|^2 =  1.169E-16

     Pert. #  1: Fermi energy shift (Ry) =     9.0350E-21     0.0000E+00
     Pert. #  2: Fermi energy shift (Ry) =    -1.8070E-20     0.0000E+00

      iter #  11 total cpu time :  7150.9 secs   av.it.:  24.2
      thresh= 1.081E-09 alpha_mix =  0.700 |ddv_scf|^2 =  7.575E-18

     End of self-consistent calculation

     Convergence has been achieved 


     Representation #  14 modes #  16  17

     Self-consistent Calculation

     Pert. #  1: Fermi energy shift (Ry) =    -1.7347E-18     9.4040E-38
     Pert. #  2: Fermi energy shift (Ry) =     2.8912E-19     1.8808E-37

      iter #   1 total cpu time :  7416.9 secs   av.it.:   8.6
      thresh= 1.000E-02 alpha_mix =  0.700 |ddv_scf|^2 =  9.440E-09

     Pert. #  1: Fermi energy shift (Ry) =     1.8504E-17     4.5918E-41
     Pert. #  2: Fermi energy shift (Ry) =     6.9389E-18     9.9488E-41

      iter #   2 total cpu time :  7481.7 secs   av.it.:  27.1
      thresh= 9.716E-06 alpha_mix =  0.700 |ddv_scf|^2 =  3.264E-07

     Pert. #  1: Fermi energy shift (Ry) =    -2.3130E-18     4.8979E-40
     Pert. #  2: Fermi energy shift (Ry) =     1.1565E-18    -2.4489E-40

      iter #   3 total cpu time :  7555.8 secs   av.it.:  22.6
      thresh= 5.713E-05 alpha_mix =  0.700 |ddv_scf|^2 =  4.067E-09

     Pert. #  1: Fermi energy shift (Ry) =     3.6140E-20     9.1835E-41
     Pert. #  2: Fermi energy shift (Ry) =    -1.8070E-20     7.6530E-41

      iter #   4 total cpu time :  7611.6 secs   av.it.:  23.4
      thresh= 6.377E-06 alpha_mix =  0.700 |ddv_scf|^2 =  2.662E-11

     Pert. #  1: Fermi energy shift (Ry) =     3.6140E-19     5.7397E-42
     Pert. #  2: Fermi energy shift (Ry) =     2.1684E-19    -9.5662E-43

      iter #   5 total cpu time :  7702.1 secs   av.it.:  25.2
      thresh= 5.159E-07 alpha_mix =  0.700 |ddv_scf|^2 =  4.852E-12

     Pert. #  1: Fermi energy shift (Ry) =     1.4456E-19     9.5662E-43
     Pert. #  2: Fermi energy shift (Ry) =    -1.4456E-19     1.9132E-42

      iter #   6 total cpu time :  7736.9 secs   av.it.:  24.4
      thresh= 2.203E-07 alpha_mix =  0.700 |ddv_scf|^2 =  4.344E-14

     Pert. #  1: Fermi energy shift (Ry) =     1.4456E-19     3.5873E-43
     Pert. #  2: Fermi energy shift (Ry) =     1.4456E-19    -2.3915E-43

      iter #   7 total cpu time :  7780.1 secs   av.it.:  25.4
      thresh= 2.084E-08 alpha_mix =  0.700 |ddv_scf|^2 =  1.475E-14

     Pert. #  1: Fermi energy shift (Ry) =     1.4456E-19     1.1958E-43
     Pert. #  2: Fermi energy shift (Ry) =    -3.6140E-20     2.3915E-43

      iter #   8 total cpu time :  7816.3 secs   av.it.:  25.6
      thresh= 1.215E-08 alpha_mix =  0.700 |ddv_scf|^2 =  2.025E-15

     Pert. #  1: Fermi energy shift (Ry) =     7.2280E-20     1.1958E-43
     Pert. #  2: Fermi energy shift (Ry) =     0.0000E+00     2.3915E-43

      iter #   9 total cpu time :  7880.9 secs   av.it.:  25.3
      thresh= 4.500E-09 alpha_mix =  0.700 |ddv_scf|^2 =  3.807E-17

     End of self-consistent calculation

     Convergence has been achieved 


     Representation #  15 modes #  18  19

     Self-consistent Calculation

     Pert. #  1: Fermi energy shift (Ry) =     2.8912E-19    -3.1347E-38
     Pert. #  2: Fermi energy shift (Ry) =     2.8912E-19    -3.1347E-38

      iter #   1 total cpu time :  8074.4 secs   av.it.:   9.0
      thresh= 1.000E-02 alpha_mix =  0.700 |ddv_scf|^2 =  5.938E-09

     Pert. #  1: Fermi energy shift (Ry) =     1.4456E-19    -1.5306E-41
     Pert. #  2: Fermi energy shift (Ry) =    -1.0842E-19    -7.6530E-42

      iter #   2 total cpu time :  8145.7 secs   av.it.:  25.7
      thresh= 7.706E-06 alpha_mix =  0.700 |ddv_scf|^2 =  3.815E-09

     Pert. #  1: Fermi energy shift (Ry) =     7.2280E-20     1.5306E-41
     Pert. #  2: Fermi energy shift (Ry) =    -7.2280E-20     3.8265E-42

      iter #   3 total cpu time :  8214.2 secs   av.it.:  24.7
      thresh= 6.176E-06 alpha_mix =  0.700 |ddv_scf|^2 =  1.413E-10

     Pert. #  1: Fermi energy shift (Ry) =     2.8912E-19     7.6530E-42
     Pert. #  2: Fermi energy shift (Ry) =     4.3368E-19     3.8265E-42

      iter #   4 total cpu time :  8266.7 secs   av.it.:  25.8
      thresh= 1.189E-06 alpha_mix =  0.700 |ddv_scf|^2 =  9.550E-10

     Pert. #  1: Fermi energy shift (Ry) =     2.1684E-19    -2.2959E-41
     Pert. #  2: Fermi energy shift (Ry) =     1.8070E-19    -3.8265E-42

      iter #   5 total cpu time :  8354.4 secs   av.it.:  22.6
      thresh= 3.090E-06 alpha_mix =  0.700 |ddv_scf|^2 =  2.118E-12

     Pert. #  1: Fermi energy shift (Ry) =    -7.2280E-20     9.5662E-43
     Pert. #  2: Fermi energy shift (Ry) =     3.6140E-20     7.1746E-43

      iter #   6 total cpu time :  8390.3 secs   av.it.:  25.0
      thresh= 1.455E-07 alpha_mix =  0.700 |ddv_scf|^2 =  1.144E-13

     Pert. #  1: Fermi energy shift (Ry) =     0.0000E+00    -5.9789E-44
     Pert. #  2: Fermi energy shift (Ry) =     1.4456E-19    -2.9894E-44

      iter #   7 total cpu time :  8426.9 secs   av.it.:  25.2
      thresh= 3.383E-08 alpha_mix =  0.700 |ddv_scf|^2 =  1.422E-14

     Pert. #  1: Fermi energy shift (Ry) =     7.2280E-20     1.4947E-44
     Pert. #  2: Fermi energy shift (Ry) =     7.2280E-20     2.2421E-44

      iter #   8 total cpu time :  8462.7 secs   av.it.:  25.8
      thresh= 1.193E-08 alpha_mix =  0.700 |ddv_scf|^2 =  1.576E-15

     Pert. #  1: Fermi energy shift (Ry) =    -7.2280E-20    -5.9789E-44
     Pert. #  2: Fermi energy shift (Ry) =     1.0842E-19    -2.9894E-44

      iter #   9 total cpu time :  8499.8 secs   av.it.:  25.9
      thresh= 3.970E-09 alpha_mix =  0.700 |ddv_scf|^2 =  2.729E-16

     Pert. #  1: Fermi energy shift (Ry) =     0.0000E+00    -2.9894E-44
     Pert. #  2: Fermi energy shift (Ry) =     1.8070E-19    -1.4947E-44

      iter #  10 total cpu time :  8535.6 secs   av.it.:  25.8
      thresh= 1.652E-09 alpha_mix =  0.700 |ddv_scf|^2 =  1.888E-15

     Pert. #  1: Fermi energy shift (Ry) =    -7.2280E-20    -2.9894E-44
     Pert. #  2: Fermi energy shift (Ry) =    -3.6140E-20    -1.4947E-44

      iter #  11 total cpu time :  8564.4 secs   av.it.:  22.6
      thresh= 4.345E-09 alpha_mix =  0.700 |ddv_scf|^2 =  2.665E-17

     End of self-consistent calculation

     Convergence has been achieved 


     Representation #  16 modes #  20  21

     Self-consistent Calculation

     Pert. #  1: Fermi energy shift (Ry) =     1.7347E-18     1.5673E-37
     Pert. #  2: Fermi energy shift (Ry) =    -2.8912E-19     9.4040E-38

      iter #   1 total cpu time :  8712.0 secs   av.it.:   7.1
      thresh= 1.000E-02 alpha_mix =  0.700 |ddv_scf|^2 =  1.386E-09

     Pert. #  1: Fermi energy shift (Ry) =    -5.7824E-18     3.0612E-41
     Pert. #  2: Fermi energy shift (Ry) =     1.1565E-18     1.5306E-41

      iter #   2 total cpu time :  8765.0 secs   av.it.:  27.3
      thresh= 3.722E-06 alpha_mix =  0.700 |ddv_scf|^2 =  3.445E-08

     Pert. #  1: Fermi energy shift (Ry) =    -2.8912E-19     0.0000E+00
     Pert. #  2: Fermi energy shift (Ry) =    -4.3368E-19     3.6734E-40

      iter #   3 total cpu time :  8829.4 secs   av.it.:  22.6
      thresh= 1.856E-05 alpha_mix =  0.700 |ddv_scf|^2 =  1.180E-09

     Pert. #  1: Fermi energy shift (Ry) =     3.6140E-19    -6.1224E-41
     Pert. #  2: Fermi energy shift (Ry) =    -2.8912E-19    -4.5918E-41

      iter #   4 total cpu time :  8891.2 secs   av.it.:  23.6
      thresh= 3.436E-06 alpha_mix =  0.700 |ddv_scf|^2 =  1.019E-11

     Pert. #  1: Fermi energy shift (Ry) =     5.0596E-19     0.0000E+00
     Pert. #  2: Fermi energy shift (Ry) =    -2.8912E-19     4.7831E-43

      iter #   5 total cpu time :  8959.7 secs   av.it.:  25.3
      thresh= 3.193E-07 alpha_mix =  0.700 |ddv_scf|^2 =  5.324E-13

     Pert. #  1: Fermi energy shift (Ry) =     2.8912E-19    -7.1746E-43
     Pert. #  2: Fermi energy shift (Ry) =    -2.5298E-19    -2.3915E-43

      iter #   6 total cpu time :  8997.2 secs   av.it.:  25.1
      thresh= 7.297E-08 alpha_mix =  0.700 |ddv_scf|^2 =  7.913E-14

     Pert. #  1: Fermi energy shift (Ry) =     4.3368E-19    -2.8026E-45
     Pert. #  2: Fermi energy shift (Ry) =    -2.8912E-19     9.3420E-46

      iter #   7 total cpu time :  9042.3 secs   av.it.:  24.7
      thresh= 2.813E-08 alpha_mix =  0.700 |ddv_scf|^2 =  1.091E-14

     Pert. #  1: Fermi energy shift (Ry) =     2.8912E-19     3.7368E-44
     Pert. #  2: Fermi energy shift (Ry) =     0.0000E+00    -7.4736E-45

      iter #   8 total cpu time :  9083.2 secs   av.it.:  25.4
      thresh= 1.044E-08 alpha_mix =  0.700 |ddv_scf|^2 =  1.057E-15

     Pert. #  1: Fermi energy shift (Ry) =     5.7824E-19     0.0000E+00
     Pert. #  2: Fermi energy shift (Ry) =    -3.6140E-20    -2.2421E-44

      iter #   9 total cpu time :  9116.9 secs   av.it.:  25.4
      thresh= 3.251E-09 alpha_mix =  0.700 |ddv_scf|^2 =  8.121E-17

     End of self-consistent calculation

     Convergence has been achieved 


     Representation #  17 modes #  22  23

     Self-consistent Calculation

     Pert. #  1: Fermi energy shift (Ry) =     2.1684E-19     1.2539E-37
     Pert. #  2: Fermi energy shift (Ry) =     1.0842E-19    -3.1347E-38

      iter #   1 total cpu time :  9264.2 secs   av.it.:   7.6
      thresh= 1.000E-02 alpha_mix =  0.700 |ddv_scf|^2 =  1.218E-09

     Pert. #  1: Fermi energy shift (Ry) =     0.0000E+00     0.0000E+00
     Pert. #  2: Fermi energy shift (Ry) =    -1.1565E-18     0.0000E+00

      iter #   2 total cpu time :  9309.3 secs   av.it.:  26.4
      thresh= 3.490E-06 alpha_mix =  0.700 |ddv_scf|^2 =  5.076E-09

     Pert. #  1: Fermi energy shift (Ry) =     1.7347E-18     1.8367E-40
     Pert. #  2: Fermi energy shift (Ry) =     2.8912E-19    -1.2245E-40

      iter #   3 total cpu time :  9376.6 secs   av.it.:  24.6
      thresh= 7.125E-06 alpha_mix =  0.700 |ddv_scf|^2 =  7.722E-09

     Pert. #  1: Fermi energy shift (Ry) =     9.0350E-20     2.4489E-40
     Pert. #  2: Fermi energy shift (Ry) =    -1.8070E-20    -1.2245E-40

      iter #   4 total cpu time :  9420.0 secs   av.it.:  22.7
      thresh= 8.787E-06 alpha_mix =  0.700 |ddv_scf|^2 =  1.136E-11

     Pert. #  1: Fermi energy shift (Ry) =     1.4456E-19    -1.9132E-42
     Pert. #  2: Fermi energy shift (Ry) =     5.4210E-20    -3.3482E-42

      iter #   5 total cpu time :  9486.7 secs   av.it.:  25.4
      thresh= 3.371E-07 alpha_mix =  0.700 |ddv_scf|^2 =  8.366E-13

     Pert. #  1: Fermi energy shift (Ry) =     0.0000E+00     4.7831E-43
     Pert. #  2: Fermi energy shift (Ry) =     1.0842E-19     0.0000E+00

      iter #   6 total cpu time :  9528.6 secs   av.it.:  25.3
      thresh= 9.147E-08 alpha_mix =  0.700 |ddv_scf|^2 =  8.760E-14

     Pert. #  1: Fermi energy shift (Ry) =     1.0842E-19     1.1958E-43
     Pert. #  2: Fermi energy shift (Ry) =     1.8070E-20     0.0000E+00

      iter #   7 total cpu time :  9567.6 secs   av.it.:  24.8
      thresh= 2.960E-08 alpha_mix =  0.700 |ddv_scf|^2 =  4.430E-15

     Pert. #  1: Fermi energy shift (Ry) =     0.0000E+00     7.1746E-43
     Pert. #  2: Fermi energy shift (Ry) =    -1.8070E-20     2.3915E-43

      iter #   8 total cpu time :  9611.9 secs   av.it.:  25.4
      thresh= 6.656E-09 alpha_mix =  0.700 |ddv_scf|^2 =  2.262E-15

     Pert. #  1: Fermi energy shift (Ry) =    -7.2280E-20    -2.3915E-43
     Pert. #  2: Fermi energy shift (Ry) =     5.4210E-20     2.9894E-43

      iter #   9 total cpu time :  9645.8 secs   av.it.:  24.8
      thresh= 4.756E-09 alpha_mix =  0.700 |ddv_scf|^2 =  6.632E-16

     Pert. #  1: Fermi energy shift (Ry) =     3.6140E-20     2.3915E-43
     Pert. #  2: Fermi energy shift (Ry) =     0.0000E+00     3.5873E-43

      iter #  10 total cpu time :  9682.5 secs   av.it.:  24.6
      thresh= 2.575E-09 alpha_mix =  0.700 |ddv_scf|^2 =  3.935E-17

     End of self-consistent calculation

     Convergence has been achieved 


     Representation #  18 modes #  24  25

     Self-consistent Calculation

     Pert. #  1: Fermi energy shift (Ry) =     5.7824E-19     2.5077E-37
     Pert. #  2: Fermi energy shift (Ry) =    -2.6021E-18    -6.2693E-38

      iter #   1 total cpu time :  9840.4 secs   av.it.:   9.9
      thresh= 1.000E-02 alpha_mix =  0.700 |ddv_scf|^2 =  1.186E-08

     Pert. #  1: Fermi energy shift (Ry) =     0.0000E+00    -3.0612E-41
     Pert. #  2: Fermi energy shift (Ry) =     3.0069E-17     1.5306E-41

      iter #   2 total cpu time :  9880.6 secs   av.it.:  27.4
      thresh= 1.089E-05 alpha_mix =  0.700 |ddv_scf|^2 =  3.932E-07

     Pert. #  1: Fermi energy shift (Ry) =    -1.1565E-18     7.3468E-40
     Pert. #  2: Fermi energy shift (Ry) =    -2.8912E-18     0.0000E+00

      iter #   3 total cpu time :  9943.1 secs   av.it.:  22.6
      thresh= 6.271E-05 alpha_mix =  0.700 |ddv_scf|^2 =  5.148E-09

     Pert. #  1: Fermi energy shift (Ry) =     1.4456E-19     2.4489E-40
     Pert. #  2: Fermi energy shift (Ry) =     2.8912E-19    -6.1224E-41

      iter #   4 total cpu time :  9998.9 secs   av.it.:  24.2
      thresh= 7.175E-06 alpha_mix =  0.700 |ddv_scf|^2 =  1.261E-10

     Pert. #  1: Fermi energy shift (Ry) =    -7.2280E-20    -6.1224E-41
     Pert. #  2: Fermi energy shift (Ry) =    -7.2280E-20     0.0000E+00

      iter #   5 total cpu time : 10042.9 secs   av.it.:  23.8
      thresh= 1.123E-06 alpha_mix =  0.700 |ddv_scf|^2 =  2.299E-12

     Pert. #  1: Fermi energy shift (Ry) =    -1.0842E-19    -7.1746E-43
     Pert. #  2: Fermi energy shift (Ry) =    -9.0350E-20     2.3915E-43

      iter #   6 total cpu time : 10091.7 secs   av.it.:  24.4
      thresh= 1.516E-07 alpha_mix =  0.700 |ddv_scf|^2 =  1.131E-13

     Pert. #  1: Fermi energy shift (Ry) =    -1.4456E-19     7.1746E-43
     Pert. #  2: Fermi energy shift (Ry) =    -9.0350E-20    -2.3915E-43

      iter #   7 total cpu time : 10129.6 secs   av.it.:  25.6
      thresh= 3.362E-08 alpha_mix =  0.700 |ddv_scf|^2 =  5.430E-14

     Pert. #  1: Fermi energy shift (Ry) =     7.2280E-20     0.0000E+00
     Pert. #  2: Fermi energy shift (Ry) =    -2.1684E-19    -2.3915E-43

      iter #   8 total cpu time : 10159.4 secs   av.it.:  23.9
      thresh= 2.330E-08 alpha_mix =  0.700 |ddv_scf|^2 =  6.532E-16

     Pert. #  1: Fermi energy shift (Ry) =    -1.0842E-19     2.2421E-43
     Pert. #  2: Fermi energy shift (Ry) =    -1.9877E-19    -2.3915E-43

      iter #   9 total cpu time : 10189.2 secs   av.it.:  25.6
      thresh= 2.556E-09 alpha_mix =  0.700 |ddv_scf|^2 =  7.425E-17

     End of self-consistent calculation

     Convergence has been achieved 


     Representation #  19 modes #  26  27

     Self-consistent Calculation

     Pert. #  1: Fermi energy shift (Ry) =    -1.1565E-18    -3.1347E-38
     Pert. #  2: Fermi energy shift (Ry) =    -2.1684E-19     1.5673E-38

      iter #   1 total cpu time : 10298.7 secs   av.it.:   6.7
      thresh= 1.000E-02 alpha_mix =  0.700 |ddv_scf|^2 =  5.304E-10

     Pert. #  1: Fermi energy shift (Ry) =     2.8912E-19     7.6530E-42
     Pert. #  2: Fermi energy shift (Ry) =     8.6736E-19    -7.6530E-42

      iter #   2 total cpu time : 10339.8 secs   av.it.:  26.4
      thresh= 2.303E-06 alpha_mix =  0.700 |ddv_scf|^2 =  2.360E-09

     Pert. #  1: Fermi energy shift (Ry) =    -5.7824E-19    -1.2245E-40
     Pert. #  2: Fermi energy shift (Ry) =     1.1565E-18    -1.5306E-40

      iter #   3 total cpu time : 10409.3 secs   av.it.:  24.4
      thresh= 4.858E-06 alpha_mix =  0.700 |ddv_scf|^2 =  3.075E-09

     Pert. #  1: Fermi energy shift (Ry) =    -2.1684E-19     1.9132E-42
     Pert. #  2: Fermi energy shift (Ry) =     7.2280E-20    -2.8699E-42

      iter #   4 total cpu time : 10470.6 secs   av.it.:  22.8
      thresh= 5.546E-06 alpha_mix =  0.700 |ddv_scf|^2 =  1.100E-11

     Pert. #  1: Fermi energy shift (Ry) =    -7.2280E-20    -3.5873E-43
     Pert. #  2: Fermi energy shift (Ry) =    -3.6140E-20    -4.7831E-43

      iter #   5 total cpu time : 10538.9 secs   av.it.:  24.9
      thresh= 3.317E-07 alpha_mix =  0.700 |ddv_scf|^2 =  5.252E-13

     Pert. #  1: Fermi energy shift (Ry) =    -1.4456E-19    -1.1958E-43
     Pert. #  2: Fermi energy shift (Ry) =    -3.6140E-20    -1.4947E-44

      iter #   6 total cpu time : 10586.9 secs   av.it.:  24.4
      thresh= 7.247E-08 alpha_mix =  0.700 |ddv_scf|^2 =  1.130E-13

     Pert. #  1: Fermi energy shift (Ry) =    -7.2280E-20     9.5662E-43
     Pert. #  2: Fermi energy shift (Ry) =     7.2280E-20     1.1958E-43

      iter #   7 total cpu time : 10630.2 secs   av.it.:  25.5
      thresh= 3.362E-08 alpha_mix =  0.700 |ddv_scf|^2 =  3.082E-14

     Pert. #  1: Fermi energy shift (Ry) =     3.6140E-20     2.3915E-43
     Pert. #  2: Fermi energy shift (Ry) =    -1.4456E-19     5.9789E-44

      iter #   8 total cpu time : 10663.7 secs   av.it.:  25.1
      thresh= 1.756E-08 alpha_mix =  0.700 |ddv_scf|^2 =  6.649E-16

     Pert. #  1: Fermi energy shift (Ry) =    -1.0842E-19     4.1852E-43
     Pert. #  2: Fermi energy shift (Ry) =    -5.4210E-20     0.0000E+00

      iter #   9 total cpu time : 10707.3 secs   av.it.:  27.4
      thresh= 2.578E-09 alpha_mix =  0.700 |ddv_scf|^2 =  1.199E-14

     Pert. #  1: Fermi energy shift (Ry) =    -2.1684E-19    -1.1958E-43
     Pert. #  2: Fermi energy shift (Ry) =    -7.2280E-20    -5.9789E-44

      iter #  10 total cpu time : 10743.9 secs   av.it.:  22.8
      thresh= 1.095E-08 alpha_mix =  0.700 |ddv_scf|^2 =  1.253E-16

     Pert. #  1: Fermi energy shift (Ry) =    -1.0842E-19     2.3915E-43
     Pert. #  2: Fermi energy shift (Ry) =    -9.0350E-20     0.0000E+00

      iter #  11 total cpu time : 10772.9 secs   av.it.:  25.4
      thresh= 1.119E-09 alpha_mix =  0.700 |ddv_scf|^2 =  3.607E-17

     End of self-consistent calculation

     Convergence has been achieved 


     Representation #  20 modes #  28  29

     Self-consistent Calculation

     Pert. #  1: Fermi energy shift (Ry) =    -8.6736E-19     1.5673E-38
     Pert. #  2: Fermi energy shift (Ry) =     4.3368E-19     1.5673E-38

      iter #   1 total cpu time : 11000.9 secs   av.it.:   8.0
      thresh= 1.000E-02 alpha_mix =  0.700 |ddv_scf|^2 =  5.336E-09

     Pert. #  1: Fermi energy shift (Ry) =     4.6259E-18     7.6530E-42
     Pert. #  2: Fermi energy shift (Ry) =     9.2519E-18     2.2959E-41

      iter #   2 total cpu time : 11078.3 secs   av.it.:  26.8
      thresh= 7.305E-06 alpha_mix =  0.700 |ddv_scf|^2 =  1.577E-07

     Pert. #  1: Fermi energy shift (Ry) =     1.7347E-18     1.2245E-40
     Pert. #  2: Fermi energy shift (Ry) =     1.1565E-18     3.0612E-40

      iter #   3 total cpu time : 11127.2 secs   av.it.:  22.6
      thresh= 3.971E-05 alpha_mix =  0.700 |ddv_scf|^2 =  4.321E-09

     Pert. #  1: Fermi energy shift (Ry) =    -1.0842E-19     1.5306E-41
     Pert. #  2: Fermi energy shift (Ry) =     0.0000E+00     1.5306E-41

      iter #   4 total cpu time : 11176.2 secs   av.it.:  23.4
      thresh= 6.573E-06 alpha_mix =  0.700 |ddv_scf|^2 =  2.810E-11

     Pert. #  1: Fermi energy shift (Ry) =    -1.0842E-19    -1.4349E-42
     Pert. #  2: Fermi energy shift (Ry) =    -1.8070E-20     1.1958E-43

      iter #   5 total cpu time : 11239.0 secs   av.it.:  25.2
      thresh= 5.301E-07 alpha_mix =  0.700 |ddv_scf|^2 =  4.566E-12

     Pert. #  1: Fermi energy shift (Ry) =     1.1294E-20     7.1746E-43
     Pert. #  2: Fermi energy shift (Ry) =     6.7763E-21    -2.3915E-43

      iter #   6 total cpu time : 11278.2 secs   av.it.:  23.9
      thresh= 2.137E-07 alpha_mix =  0.700 |ddv_scf|^2 =  4.947E-14

     Pert. #  1: Fermi energy shift (Ry) =     1.1294E-20     3.5873E-43
     Pert. #  2: Fermi energy shift (Ry) =    -3.3881E-21    -1.1958E-43

      iter #   7 total cpu time : 11329.8 secs   av.it.:  24.9
      thresh= 2.224E-08 alpha_mix =  0.700 |ddv_scf|^2 =  8.431E-15

     Pert. #  1: Fermi energy shift (Ry) =    -1.1294E-20     2.3915E-43
     Pert. #  2: Fermi energy shift (Ry) =     4.5175E-21     3.5873E-43

      iter #   8 total cpu time : 11367.5 secs   av.it.:  25.6
      thresh= 9.182E-09 alpha_mix =  0.700 |ddv_scf|^2 =  2.843E-15

     Pert. #  1: Fermi energy shift (Ry) =     2.2588E-21     4.7831E-43
     Pert. #  2: Fermi energy shift (Ry) =     6.7763E-21     2.3915E-43

      iter #   9 total cpu time : 11401.7 secs   av.it.:  24.4
      thresh= 5.332E-09 alpha_mix =  0.700 |ddv_scf|^2 =  1.360E-16

     Pert. #  1: Fermi energy shift (Ry) =     4.5175E-21     1.1958E-43
     Pert. #  2: Fermi energy shift (Ry) =     1.1294E-21    -4.1852E-43

      iter #  10 total cpu time : 11431.4 secs   av.it.:  25.6
      thresh= 1.166E-09 alpha_mix =  0.700 |ddv_scf|^2 =  7.313E-17

     End of self-consistent calculation

     Convergence has been achieved 


     Representation #  21 modes #  30  31

     Self-consistent Calculation

     Pert. #  1: Fermi energy shift (Ry) =     5.7824E-19     0.0000E+00
     Pert. #  2: Fermi energy shift (Ry) =     7.2280E-19    -9.7958E-40

      iter #   1 total cpu time : 11543.9 secs   av.it.:  10.0
      thresh= 1.000E-02 alpha_mix =  0.700 |ddv_scf|^2 =  1.793E-08

     Pert. #  1: Fermi energy shift (Ry) =     6.9389E-18     7.6530E-42
     Pert. #  2: Fermi energy shift (Ry) =     0.0000E+00     3.8265E-42

      iter #   2 total cpu time : 11583.0 secs   av.it.:  26.9
      thresh= 1.339E-05 alpha_mix =  0.700 |ddv_scf|^2 =  1.439E-07

     Pert. #  1: Fermi energy shift (Ry) =    -4.6259E-18     1.2245E-40
     Pert. #  2: Fermi energy shift (Ry) =    -2.3130E-18     6.1224E-41

      iter #   3 total cpu time : 11685.8 secs   av.it.:  23.9
      thresh= 3.793E-05 alpha_mix =  0.700 |ddv_scf|^2 =  8.612E-08

     Pert. #  1: Fermi energy shift (Ry) =     3.6140E-19     3.0612E-41
     Pert. #  2: Fermi energy shift (Ry) =     0.0000E+00     0.0000E+00

      iter #   4 total cpu time : 11734.8 secs   av.it.:  23.2
      thresh= 2.935E-05 alpha_mix =  0.700 |ddv_scf|^2 =  3.814E-11

     Pert. #  1: Fermi energy shift (Ry) =     1.1565E-18     1.6741E-42
     Pert. #  2: Fermi energy shift (Ry) =     2.8912E-19     2.3915E-43

      iter #   5 total cpu time : 11794.7 secs   av.it.:  26.3
      thresh= 6.176E-07 alpha_mix =  0.700 |ddv_scf|^2 =  2.695E-12

     Pert. #  1: Fermi energy shift (Ry) =     1.4456E-19    -4.7831E-43
     Pert. #  2: Fermi energy shift (Ry) =     2.1684E-19    -2.3915E-43

      iter #   6 total cpu time : 11858.9 secs   av.it.:  25.1
      thresh= 1.642E-07 alpha_mix =  0.700 |ddv_scf|^2 =  7.647E-14

     Pert. #  1: Fermi energy shift (Ry) =     5.7824E-19    -1.1958E-43
     Pert. #  2: Fermi energy shift (Ry) =     0.0000E+00     0.0000E+00

      iter #   7 total cpu time : 11902.2 secs   av.it.:  25.6
      thresh= 2.765E-08 alpha_mix =  0.700 |ddv_scf|^2 =  1.510E-14

     Pert. #  1: Fermi energy shift (Ry) =     1.0119E-18     5.9789E-44
     Pert. #  2: Fermi energy shift (Ry) =     2.1684E-19     1.1958E-43

      iter #   8 total cpu time : 11940.1 secs   av.it.:  25.6
      thresh= 1.229E-08 alpha_mix =  0.700 |ddv_scf|^2 =  4.128E-15

     Pert. #  1: Fermi energy shift (Ry) =     1.4456E-19    -1.1958E-43
     Pert. #  2: Fermi energy shift (Ry) =     6.5052E-19     0.0000E+00

      iter #   9 total cpu time : 11974.9 secs   av.it.:  24.9
      thresh= 6.425E-09 alpha_mix =  0.700 |ddv_scf|^2 =  7.863E-16

     Pert. #  1: Fermi energy shift (Ry) =     5.7824E-19    -1.1958E-43
     Pert. #  2: Fermi energy shift (Ry) =     2.1684E-19     0.0000E+00

      iter #  10 total cpu time : 12007.9 secs   av.it.:  25.8
      thresh= 2.804E-09 alpha_mix =  0.700 |ddv_scf|^2 =  3.353E-15

     Pert. #  1: Fermi energy shift (Ry) =     7.2280E-19    -5.9789E-44
     Pert. #  2: Fermi energy shift (Ry) =     2.8912E-19    -2.9894E-44

      iter #  11 total cpu time : 12034.8 secs   av.it.:  23.3
      thresh= 5.791E-09 alpha_mix =  0.700 |ddv_scf|^2 =  1.324E-17

     End of self-consistent calculation

     Convergence has been achieved 


     Representation #  22 modes #  32  33

     Self-consistent Calculation

     Pert. #  1: Fermi energy shift (Ry) =    -7.2280E-20    -3.1347E-38
     Pert. #  2: Fermi energy shift (Ry) =     7.2280E-20     5.4856E-38

      iter #   1 total cpu time : 12214.0 secs   av.it.:   7.0
      thresh= 1.000E-02 alpha_mix =  0.700 |ddv_scf|^2 =  2.381E-10

     Pert. #  1: Fermi energy shift (Ry) =    -1.4456E-19     5.7397E-42
     Pert. #  2: Fermi energy shift (Ry) =     2.8912E-19    -2.8699E-42

      iter #   2 total cpu time : 12267.9 secs   av.it.:  26.3
      thresh= 1.543E-06 alpha_mix =  0.700 |ddv_scf|^2 =  5.684E-10

     Pert. #  1: Fermi energy shift (Ry) =     1.1565E-18    -7.6530E-42
     Pert. #  2: Fermi energy shift (Ry) =     0.0000E+00     0.0000E+00

      iter #   3 total cpu time : 12314.8 secs   av.it.:  24.7
      thresh= 2.384E-06 alpha_mix =  0.700 |ddv_scf|^2 =  1.648E-09

     Pert. #  1: Fermi energy shift (Ry) =     1.8070E-20    -5.9310E-41
     Pert. #  2: Fermi energy shift (Ry) =     2.2588E-21     3.8265E-42

      iter #   4 total cpu time : 12375.7 secs   av.it.:  22.9
      thresh= 4.059E-06 alpha_mix =  0.700 |ddv_scf|^2 =  6.330E-12

     Pert. #  1: Fermi energy shift (Ry) =     0.0000E+00     9.5662E-43
     Pert. #  2: Fermi energy shift (Ry) =    -8.1315E-20     4.7831E-43

      iter #   5 total cpu time : 12453.6 secs   av.it.:  24.4
      thresh= 2.516E-07 alpha_mix =  0.700 |ddv_scf|^2 =  7.087E-14

     Pert. #  1: Fermi energy shift (Ry) =     7.2280E-20    -5.9789E-44
     Pert. #  2: Fermi energy shift (Ry) =     5.4210E-20     0.0000E+00

      iter #   6 total cpu time : 12486.2 secs   av.it.:  25.6
      thresh= 2.662E-08 alpha_mix =  0.700 |ddv_scf|^2 =  5.117E-14

     Pert. #  1: Fermi energy shift (Ry) =     5.4210E-20     1.7937E-43
     Pert. #  2: Fermi energy shift (Ry) =    -9.0350E-21     5.9789E-44

      iter #   7 total cpu time : 12521.1 secs   av.it.:  25.1
      thresh= 2.262E-08 alpha_mix =  0.700 |ddv_scf|^2 =  9.198E-15

     Pert. #  1: Fermi energy shift (Ry) =    -1.8070E-20     1.9431E-43
     Pert. #  2: Fermi energy shift (Ry) =    -9.9385E-20     1.4947E-43

      iter #   8 total cpu time : 12553.0 secs   av.it.:  24.4
      thresh= 9.591E-09 alpha_mix =  0.700 |ddv_scf|^2 =  2.693E-16

     Pert. #  1: Fermi energy shift (Ry) =     9.0350E-20     1.1958E-43
     Pert. #  2: Fermi energy shift (Ry) =    -9.0350E-21     0.0000E+00

      iter #   9 total cpu time : 12596.3 secs   av.it.:  25.6
      thresh= 1.641E-09 alpha_mix =  0.700 |ddv_scf|^2 =  2.050E-17

     End of self-consistent calculation

     Convergence has been achieved 

     Number of q in the star =    1
     List of q in the star:
          1   0.000000000   0.000000000   0.000000000

     Diagonalizing the dynamical matrix

     q = (    0.000000000   0.000000000   0.000000000 ) 

 **************************************************************************
     freq (    1) =       0.096510 [THz] =       3.219236 [cm-1]
     freq (    2) =       0.237863 [THz] =       7.934270 [cm-1]
     freq (    3) =       0.237863 [THz] =       7.934270 [cm-1]
     freq (    4) =       1.769405 [THz] =      59.021003 [cm-1]
     freq (    5) =       1.769405 [THz] =      59.021003 [cm-1]
     freq (    6) =       2.373929 [THz] =      79.185742 [cm-1]
     freq (    7) =       2.373929 [THz] =      79.185742 [cm-1]
     freq (    8) =       2.619041 [THz] =      87.361817 [cm-1]
     freq (    9) =       3.370437 [THz] =     112.425691 [cm-1]
     freq (   10) =       3.370437 [THz] =     112.425691 [cm-1]
     freq (   11) =       3.390088 [THz] =     113.081148 [cm-1]
     freq (   12) =       3.624886 [THz] =     120.913172 [cm-1]
     freq (   13) =       3.805611 [THz] =     126.941515 [cm-1]
     freq (   14) =       3.805611 [THz] =     126.941515 [cm-1]
     freq (   15) =       4.025859 [THz] =     134.288202 [cm-1]
     freq (   16) =       4.145066 [THz] =     138.264507 [cm-1]
     freq (   17) =       4.265875 [THz] =     142.294275 [cm-1]
     freq (   18) =       4.265875 [THz] =     142.294275 [cm-1]
     freq (   19) =       4.550597 [THz] =     151.791576 [cm-1]
     freq (   20) =       4.550597 [THz] =     151.791576 [cm-1]
     freq (   21) =       4.950303 [THz] =     165.124337 [cm-1]
     freq (   22) =       5.300042 [THz] =     176.790385 [cm-1]
     freq (   23) =       5.300042 [THz] =     176.790385 [cm-1]
     freq (   24) =       5.674758 [THz] =     189.289555 [cm-1]
     freq (   25) =       5.836555 [THz] =     194.686504 [cm-1]
     freq (   26) =       5.836555 [THz] =     194.686504 [cm-1]
     freq (   27) =       6.224123 [THz] =     207.614409 [cm-1]
     freq (   28) =       7.155843 [THz] =     238.693241 [cm-1]
     freq (   29) =       7.155843 [THz] =     238.693241 [cm-1]
     freq (   30) =       8.021191 [THz] =     267.558146 [cm-1]
     freq (   31) =       8.069149 [THz] =     269.157843 [cm-1]
     freq (   32) =       8.069149 [THz] =     269.157843 [cm-1]
     freq (   33) =       8.863044 [THz] =     295.639339 [cm-1]
 **************************************************************************

     Mode symmetry, C_3v (3m)   point group:

     freq (   1-   1) =          3.2  [cm-1]   --> A_1  L_1        I+R
     freq (   2-   3) =          7.9  [cm-1]   --> E    L_3        I+R
     freq (   4-   5) =         59.0  [cm-1]   --> E    L_3        I+R
     freq (   6-   7) =         79.2  [cm-1]   --> E    L_3        I+R
     freq (   8-   8) =         87.4  [cm-1]   --> A_2  L_2           
     freq (   9-  10) =        112.4  [cm-1]   --> E    L_3        I+R
     freq (  11-  11) =        113.1  [cm-1]   --> A_1  L_1        I+R
     freq (  12-  12) =        120.9  [cm-1]   --> A_1  L_1        I+R
     freq (  13-  14) =        126.9  [cm-1]   --> E    L_3        I+R
     freq (  15-  15) =        134.3  [cm-1]   --> A_1  L_1        I+R
     freq (  16-  16) =        138.3  [cm-1]   --> A_2  L_2           
     freq (  17-  18) =        142.3  [cm-1]   --> E    L_3        I+R
     freq (  19-  20) =        151.8  [cm-1]   --> E    L_3        I+R
     freq (  21-  21) =        165.1  [cm-1]   --> A_1  L_1        I+R
     freq (  22-  23) =        176.8  [cm-1]   --> E    L_3        I+R
     freq (  24-  24) =        189.3  [cm-1]   --> A_1  L_1        I+R
     freq (  25-  26) =        194.7  [cm-1]   --> E    L_3        I+R
     freq (  27-  27) =        207.6  [cm-1]   --> A_2  L_2           
     freq (  28-  29) =        238.7  [cm-1]   --> E    L_3        I+R
     freq (  30-  30) =        267.6  [cm-1]   --> A_1  L_1        I+R
     freq (  31-  32) =        269.2  [cm-1]   --> E    L_3        I+R
     freq (  33-  33) =        295.6  [cm-1]   --> A_1  L_1        I+R

     Calculation of q =    0.2886751  -0.5000000   0.0000000

     Parallelization info
     --------------------
     sticks:   dense  smooth     PW     G-vecs:    dense   smooth      PW
     Min         154     154     42                40066    40066    5850
     Max         155     155     43                40087    40087    5885
     Sum        4939    4939   1369              1282343  1282343  187861

     Using Slab Decomposition


     Title: 
     Nb3Br8                                                                     


     bravais-lattice index     =            0
     lattice parameter (alat)  =      13.3936  a.u.
     unit-cell volume          =    9490.8392 (a.u.)^3
     number of atoms/cell      =           11
     number of atomic types    =            2
     number of electrons       =        95.00
     number of Kohn-Sham states=           58
     kinetic-energy cutoff     =     100.0000  Ry
     charge density cutoff     =     400.0000  Ry
     Exchange-correlation= PBE
                           (   1   4   3   4   0   0   0)

     celldm(1)=  13.393593  celldm(2)=   0.000000  celldm(3)=   0.000000
     celldm(4)=   0.000000  celldm(5)=   0.000000  celldm(6)=   0.000000

     crystal axes: (cart. coord. in units of alat)
               a(1) = (   0.866025   0.500000   0.000000 )  
               a(2) = (  -0.866025   0.500000   0.000000 )  
               a(3) = (   0.000000   0.000000   4.561238 )  

     reciprocal axes: (cart. coord. in units 2 pi/alat)
               b(1) = (  0.577350  1.000000 -0.000000 )  
               b(2) = ( -0.577350  1.000000  0.000000 )  
               b(3) = (  0.000000 -0.000000  0.219239 )  


     PseudoPot. # 1 for Nb read from file:
     /scratch-shared/mroesner/Nb3X8_cDFPT/pp/Nb_ONCV_PBE-1.2.upf
     MD5 check sum: 2c750ac0b6910ff4cf0ab5f6c4124a64
     Pseudo is Norm-conserving, Zval = 13.0
     Generated using ONCVPSP code by D. R. Hamann
     Using radial grid of  602 points,  6 beta functions with: 
                l(1) =   0
                l(2) =   0
                l(3) =   1
                l(4) =   1
                l(5) =   2
                l(6) =   2

     PseudoPot. # 2 for Br read from file:
     /scratch-shared/mroesner/Nb3X8_cDFPT/pp/Br_ONCV_PBE-1.2.upf
     MD5 check sum: 5b50323dbf1c0ae0ed9e7f1e72c3f86c
     Pseudo is Norm-conserving, Zval =  7.0
     Generated using ONCVPSP code by D. R. Hamann
     Using radial grid of  602 points,  6 beta functions with: 
                l(1) =   0
                l(2) =   0
                l(3) =   1
                l(4) =   1
                l(5) =   2
                l(6) =   2

     atomic species   valence    mass     pseudopotential
     Nb               13.00    92.90637     Nb( 1.00)
     Br                7.00    79.90400     Br( 1.00)

      6 Sym. Ops. (no inversion) found



   Cartesian axes

     site n.     atom                  positions (alat units)
         1        Nb     tau(   1) = (   0.2343915   0.0000000  -0.4658352  )
         2        Nb     tau(   2) = (  -0.1171958   0.2029890  -0.4658352  )
         3        Nb     tau(   3) = (  -0.1171958  -0.2029890  -0.4658352  )
         4        Br     tau(   4) = (   0.0000000   0.0000000  -0.7466792  )
         5        Br     tau(   5) = (  -0.8612291  -0.0000000  -0.6686237  )
         6        Br     tau(   6) = (  -0.4354109  -0.2458463  -0.6686237  )
         7        Br     tau(   7) = (  -0.4354109   0.2458463  -0.6686237  )
         8        Br     tau(   8) = (   0.5773503  -0.0000000  -0.2647046  )
         9        Br     tau(   9) = (  -0.2867850   0.0000000  -0.2154095  )
        10        Br     tau(  10) = (   0.1433925  -0.2483631  -0.2154095  )
        11        Br     tau(  11) = (   0.1433925   0.2483631  -0.2154095  )

     --------------------------------------------
     DFT-D3 Dispersion Correction (no 3-body):
     --------------------------------------------
       Reference C6 values for interpolation: 

         atom   Coordination number   C6
         Br         0.000           334.26
         Br         0.997           338.48
         Nb         0.000          2950.50
         Nb         1.954          1161.16
         Nb         2.922           857.79

       Values used:

         atom   Coordination number  R0_AB[au]  C6      C8
         Nb         8.071            3.647    857.79 111659.18
         Nb         8.071            3.647    857.79 111659.18
         Nb         8.071            3.647    857.79 111659.18
         Br         3.481            3.181    338.47  21401.43
         Br         2.747            3.181    338.47  21401.43
         Br         2.747            3.181    338.47  21401.43
         Br         2.747            3.181    338.47  21401.43
         Br         3.632            3.181    338.47  21401.43
         Br         2.682            3.181    338.47  21401.43
         Br         2.682            3.181    338.47  21401.43
         Br         2.682            3.181    338.47  21401.43

         Molecular C6 ( Ry / a.u.^6 ) =     54845.00


     number of k points=    26  Gaussian smearing, width (Ry)=  0.0037
                       cart. coord. in units 2pi/alat
        k(    1) = (   0.0000000   0.0000000   0.0000000), wk =   0.0555556
        k(    2) = (   0.2886751  -0.5000000   0.0000000), wk =   0.0000000
        k(    3) = (  -0.0962250   0.1666667   0.0000000), wk =   0.1111111
        k(    4) = (   0.1924501  -0.3333333   0.0000000), wk =   0.0000000
        k(    5) = (  -0.1924501   0.3333333   0.0000000), wk =   0.1111111
        k(    6) = (   0.0962250  -0.1666667   0.0000000), wk =   0.0000000
        k(    7) = (   0.2886751  -0.5000000   0.0000000), wk =   0.0555556
        k(    8) = (   0.5773503  -1.0000000   0.0000000), wk =   0.0000000
        k(    9) = (   0.0000000   0.3333333   0.0000000), wk =   0.2222222
        k(   10) = (   0.2886751  -0.1666667   0.0000000), wk =   0.0000000
        k(   11) = (  -0.0962250   0.5000000   0.0000000), wk =   0.2222222
        k(   12) = (   0.1924501   0.0000000   0.0000000), wk =   0.0000000
        k(   13) = (   0.0000000   0.6666667   0.0000000), wk =   0.1111111
        k(   14) = (   0.2886751   0.1666667   0.0000000), wk =   0.0000000
        k(   15) = (   0.1924501  -0.0000000   0.0000000), wk =   0.2222222
        k(   16) = (   0.4811252  -0.5000000   0.0000000), wk =   0.0000000
        k(   17) = (   0.3849002  -0.0000000   0.0000000), wk =   0.2222222
        k(   18) = (   0.6735753  -0.5000000   0.0000000), wk =   0.0000000
        k(   19) = (  -0.5773503   0.0000000   0.0000000), wk =   0.1111111
        k(   20) = (  -0.2886751  -0.5000000   0.0000000), wk =   0.0000000
        k(   21) = (   0.2886751   0.1666667   0.0000000), wk =   0.1111111
        k(   22) = (   0.5773503  -0.3333333   0.0000000), wk =   0.0000000
        k(   23) = (   0.4811252  -0.1666667   0.0000000), wk =   0.2222222
        k(   24) = (   0.7698004  -0.6666667   0.0000000), wk =   0.0000000
        k(   25) = (   0.4811252   0.1666667   0.0000000), wk =   0.2222222
        k(   26) = (   0.7698004  -0.3333333   0.0000000), wk =   0.0000000

     Dense  grid:  1282343 G-vectors     FFT dimensions: (  90,  90, 400)

     Estimated max dynamical RAM per process >      75.12 MB

     Estimated total dynamical RAM >      28.17 GB

     The potential is recalculated from file :
     ./out/_ph0/Nb3Br8.q_2/Nb3Br8.save/charge-density

     Starting wfcs are    0 atomic +   58 random wfcs

     Band Structure Calculation
     Davidson diagonalization with overlap

     ethr =  1.05E-11,  avg # of iterations = 76.7

     total cpu time spent up to now is      105.2 secs

     End of band structure calculation

          k = 0.0000 0.0000 0.0000 (160347 PWs)   bands (ev):

   -57.8279 -57.7535 -57.7535 -34.1737 -34.0143 -34.0108 -34.0108 -33.9206
   -33.9206 -33.7040 -33.5549 -33.5549 -18.9527 -18.4190 -17.8600 -17.8114
   -17.8114 -17.6714 -17.3182 -17.3182  -8.4679  -8.4679  -8.1406  -7.9175
    -7.5717  -7.5717  -7.3336  -7.2905  -6.8252  -6.8252  -6.1852  -5.9994
    -5.9994  -5.7819  -5.7205  -5.7205  -5.3314  -5.3314  -5.2993  -5.2049
    -4.5409  -4.5409  -3.9374  -3.9374  -3.5625  -2.9864  -2.9864  -1.9268
    -1.0637  -1.0637  -0.4272  -0.2471  -0.2471   0.1458   0.2097   0.2097
     0.4028   0.4028

          k = 0.2887-0.5000 0.0000 (160226 PWs)   bands (ev):

   -57.8274 -57.7540 -57.7535 -34.1618 -34.0106 -34.0080 -34.0014 -33.9244
   -33.9208 -33.7107 -33.5718 -33.5581 -18.8884 -18.2038 -18.1141 -17.8434
   -17.8102 -17.6065 -17.4361 -17.3229  -8.0578  -8.0319  -7.7813  -7.5321
    -7.3783  -7.2551  -7.0706  -7.0584  -6.9802  -6.7174  -6.5988  -6.4138
    -6.3750  -6.0040  -6.0006  -5.9209  -5.7543  -5.6379  -5.2291  -5.0955
[...]
      thresh= 1.000E-02 alpha_mix =  0.700 |ddv_scf|^2 =  3.795E-08

      iter #   2 total cpu time : 32073.9 secs   av.it.:  25.4
      thresh= 1.948E-05 alpha_mix =  0.700 |ddv_scf|^2 =  1.276E-06

      iter #   3 total cpu time : 32111.7 secs   av.it.:  20.8
      thresh= 1.130E-04 alpha_mix =  0.700 |ddv_scf|^2 =  1.708E-08

      iter #   4 total cpu time : 32152.5 secs   av.it.:  21.8
      thresh= 1.307E-05 alpha_mix =  0.700 |ddv_scf|^2 =  6.329E-11

      iter #   5 total cpu time : 32200.8 secs   av.it.:  23.5
      thresh= 7.955E-07 alpha_mix =  0.700 |ddv_scf|^2 =  1.727E-12

      iter #   6 total cpu time : 32232.3 secs   av.it.:  23.7
      thresh= 1.314E-07 alpha_mix =  0.700 |ddv_scf|^2 =  1.324E-13

      iter #   7 total cpu time : 32273.6 secs   av.it.:  24.2
      thresh= 3.639E-08 alpha_mix =  0.700 |ddv_scf|^2 =  7.650E-14

      iter #   8 total cpu time : 32309.0 secs   av.it.:  22.7
      thresh= 2.766E-08 alpha_mix =  0.700 |ddv_scf|^2 =  6.420E-15

      iter #   9 total cpu time : 32337.0 secs   av.it.:  22.6
      thresh= 8.012E-09 alpha_mix =  0.700 |ddv_scf|^2 =  2.867E-16

      iter #  10 total cpu time : 32375.9 secs   av.it.:  24.4
      thresh= 1.693E-09 alpha_mix =  0.700 |ddv_scf|^2 =  2.694E-16

      iter #  11 total cpu time : 32416.4 secs   av.it.:  22.2
      thresh= 1.641E-09 alpha_mix =  0.700 |ddv_scf|^2 =  3.467E-18

     End of self-consistent calculation

     Convergence has been achieved 


     Representation #  29 mode #  29

     Self-consistent Calculation

      iter #   1 total cpu time : 32499.9 secs   av.it.:   7.5
      thresh= 1.000E-02 alpha_mix =  0.700 |ddv_scf|^2 =  7.841E-09

      iter #   2 total cpu time : 32531.3 secs   av.it.:  25.5
      thresh= 8.855E-06 alpha_mix =  0.700 |ddv_scf|^2 =  2.478E-07

      iter #   3 total cpu time : 32571.9 secs   av.it.:  20.8
      thresh= 4.978E-05 alpha_mix =  0.700 |ddv_scf|^2 =  2.555E-09

      iter #   4 total cpu time : 32614.5 secs   av.it.:  22.5
      thresh= 5.055E-06 alpha_mix =  0.700 |ddv_scf|^2 =  3.988E-11

      iter #   5 total cpu time : 32656.8 secs   av.it.:  23.1
      thresh= 6.315E-07 alpha_mix =  0.700 |ddv_scf|^2 =  3.585E-12

      iter #   6 total cpu time : 32688.3 secs   av.it.:  22.8
      thresh= 1.894E-07 alpha_mix =  0.700 |ddv_scf|^2 =  6.275E-13

      iter #   7 total cpu time : 32723.6 secs   av.it.:  23.6
      thresh= 7.922E-08 alpha_mix =  0.700 |ddv_scf|^2 =  5.388E-14

      iter #   8 total cpu time : 32762.2 secs   av.it.:  23.8
      thresh= 2.321E-08 alpha_mix =  0.700 |ddv_scf|^2 =  8.966E-15

      iter #   9 total cpu time : 32798.0 secs   av.it.:  24.1
      thresh= 9.469E-09 alpha_mix =  0.700 |ddv_scf|^2 =  2.716E-14

      iter #  10 total cpu time : 32827.7 secs   av.it.:  21.6
      thresh= 1.648E-08 alpha_mix =  0.700 |ddv_scf|^2 =  2.825E-16

      iter #  11 total cpu time : 32878.5 secs   av.it.:  23.7
      thresh= 1.681E-09 alpha_mix =  0.700 |ddv_scf|^2 =  1.420E-16

      iter #  12 total cpu time : 32928.9 secs   av.it.:  22.6
      thresh= 1.192E-09 alpha_mix =  0.700 |ddv_scf|^2 =  3.940E-18

     End of self-consistent calculation

     Convergence has been achieved 


     Representation #  30 mode #  30

     Self-consistent Calculation

      iter #   1 total cpu time : 32989.2 secs   av.it.:   8.0
      thresh= 1.000E-02 alpha_mix =  0.700 |ddv_scf|^2 =  2.963E-08

      iter #   2 total cpu time : 33045.4 secs   av.it.:  25.2
      thresh= 1.721E-05 alpha_mix =  0.700 |ddv_scf|^2 =  9.088E-07

      iter #   3 total cpu time : 33079.9 secs   av.it.:  20.8
      thresh= 9.533E-05 alpha_mix =  0.700 |ddv_scf|^2 =  1.966E-08

      iter #   4 total cpu time : 33118.3 secs   av.it.:  21.8
      thresh= 1.402E-05 alpha_mix =  0.700 |ddv_scf|^2 =  5.289E-11

      iter #   5 total cpu time : 33168.8 secs   av.it.:  23.3
      thresh= 7.273E-07 alpha_mix =  0.700 |ddv_scf|^2 =  2.688E-12

      iter #   6 total cpu time : 33207.1 secs   av.it.:  23.5
      thresh= 1.639E-07 alpha_mix =  0.700 |ddv_scf|^2 =  2.596E-13

      iter #   7 total cpu time : 33260.6 secs   av.it.:  23.8
      thresh= 5.095E-08 alpha_mix =  0.700 |ddv_scf|^2 =  8.193E-14

      iter #   8 total cpu time : 33334.3 secs   av.it.:  23.5
      thresh= 2.862E-08 alpha_mix =  0.700 |ddv_scf|^2 =  6.522E-15

      iter #   9 total cpu time : 33362.9 secs   av.it.:  22.8
      thresh= 8.076E-09 alpha_mix =  0.700 |ddv_scf|^2 =  1.317E-16

      iter #  10 total cpu time : 33404.2 secs   av.it.:  24.8
      thresh= 1.147E-09 alpha_mix =  0.700 |ddv_scf|^2 =  2.433E-16

      iter #  11 total cpu time : 33450.7 secs   av.it.:  22.4
      thresh= 1.560E-09 alpha_mix =  0.700 |ddv_scf|^2 =  4.103E-18

     End of self-consistent calculation

     Convergence has been achieved 


     Representation #  31 mode #  31

     Self-consistent Calculation

      iter #   1 total cpu time : 33547.9 secs   av.it.:   8.0
      thresh= 1.000E-02 alpha_mix =  0.700 |ddv_scf|^2 =  2.722E-08

      iter #   2 total cpu time : 33588.0 secs   av.it.:  25.2
      thresh= 1.650E-05 alpha_mix =  0.700 |ddv_scf|^2 =  8.385E-07

      iter #   3 total cpu time : 33628.6 secs   av.it.:  20.8
      thresh= 9.157E-05 alpha_mix =  0.700 |ddv_scf|^2 =  1.681E-08

      iter #   4 total cpu time : 33699.7 secs   av.it.:  21.8
      thresh= 1.297E-05 alpha_mix =  0.700 |ddv_scf|^2 =  5.148E-11

      iter #   5 total cpu time : 33748.8 secs   av.it.:  23.4
      thresh= 7.175E-07 alpha_mix =  0.700 |ddv_scf|^2 =  2.143E-12

      iter #   6 total cpu time : 33781.8 secs   av.it.:  23.6
      thresh= 1.464E-07 alpha_mix =  0.700 |ddv_scf|^2 =  1.790E-13

      iter #   7 total cpu time : 33814.7 secs   av.it.:  24.2
      thresh= 4.231E-08 alpha_mix =  0.700 |ddv_scf|^2 =  4.206E-14

      iter #   8 total cpu time : 33847.7 secs   av.it.:  23.7
      thresh= 2.051E-08 alpha_mix =  0.700 |ddv_scf|^2 =  5.051E-15

      iter #   9 total cpu time : 33888.5 secs   av.it.:  22.8
      thresh= 7.107E-09 alpha_mix =  0.700 |ddv_scf|^2 =  2.203E-16

      iter #  10 total cpu time : 33937.6 secs   av.it.:  23.7
      thresh= 1.484E-09 alpha_mix =  0.700 |ddv_scf|^2 =  7.743E-17

     End of self-consistent calculation

     Convergence has been achieved 


     Representation #  32 mode #  32

     Self-consistent Calculation

      iter #   1 total cpu time : 33984.9 secs   av.it.:   9.7
      thresh= 1.000E-02 alpha_mix =  0.700 |ddv_scf|^2 =  4.416E-08

      iter #   2 total cpu time : 34025.1 secs   av.it.:  25.5
      thresh= 2.101E-05 alpha_mix =  0.700 |ddv_scf|^2 =  1.375E-06

      iter #   3 total cpu time : 34068.0 secs   av.it.:  20.8
      thresh= 1.173E-04 alpha_mix =  0.700 |ddv_scf|^2 =  2.048E-08

      iter #   4 total cpu time : 34107.7 secs   av.it.:  22.5
      thresh= 1.431E-05 alpha_mix =  0.700 |ddv_scf|^2 =  4.812E-10

      iter #   5 total cpu time : 34147.8 secs   av.it.:  22.3
      thresh= 2.194E-06 alpha_mix =  0.700 |ddv_scf|^2 =  4.898E-12

      iter #   6 total cpu time : 34177.9 secs   av.it.:  23.6
      thresh= 2.213E-07 alpha_mix =  0.700 |ddv_scf|^2 =  4.336E-13

      iter #   7 total cpu time : 34213.2 secs   av.it.:  24.1
      thresh= 6.585E-08 alpha_mix =  0.700 |ddv_scf|^2 =  1.054E-13

      iter #   8 total cpu time : 34249.9 secs   av.it.:  23.7
      thresh= 3.246E-08 alpha_mix =  0.700 |ddv_scf|^2 =  1.411E-14

      iter #   9 total cpu time : 34280.6 secs   av.it.:  22.7
      thresh= 1.188E-08 alpha_mix =  0.700 |ddv_scf|^2 =  5.532E-16

      iter #  10 total cpu time : 34317.7 secs   av.it.:  23.6
      thresh= 2.352E-09 alpha_mix =  0.700 |ddv_scf|^2 =  2.823E-16

      iter #  11 total cpu time : 34353.5 secs   av.it.:  22.5
      thresh= 1.680E-09 alpha_mix =  0.700 |ddv_scf|^2 =  3.921E-18

     End of self-consistent calculation

     Convergence has been achieved 


     Representation #  33 mode #  33

     Self-consistent Calculation

      iter #   1 total cpu time : 34408.6 secs   av.it.:   7.8
      thresh= 1.000E-02 alpha_mix =  0.700 |ddv_scf|^2 =  4.461E-09

      iter #   2 total cpu time : 34446.4 secs   av.it.:  25.7
      thresh= 6.679E-06 alpha_mix =  0.700 |ddv_scf|^2 =  9.897E-08

      iter #   3 total cpu time : 34476.4 secs   av.it.:  21.1
      thresh= 3.146E-05 alpha_mix =  0.700 |ddv_scf|^2 =  3.294E-09

      iter #   4 total cpu time : 34528.7 secs   av.it.:  21.8
      thresh= 5.739E-06 alpha_mix =  0.700 |ddv_scf|^2 =  2.593E-10

      iter #   5 total cpu time : 34567.9 secs   av.it.:  22.2
      thresh= 1.610E-06 alpha_mix =  0.700 |ddv_scf|^2 =  3.955E-12

      iter #   6 total cpu time : 34603.2 secs   av.it.:  23.0
      thresh= 1.989E-07 alpha_mix =  0.700 |ddv_scf|^2 =  3.556E-13

      iter #   7 total cpu time : 34632.5 secs   av.it.:  23.6
      thresh= 5.963E-08 alpha_mix =  0.700 |ddv_scf|^2 =  3.569E-14

      iter #   8 total cpu time : 34675.9 secs   av.it.:  24.1
      thresh= 1.889E-08 alpha_mix =  0.700 |ddv_scf|^2 =  1.494E-15

      iter #   9 total cpu time : 34720.9 secs   av.it.:  24.5
      thresh= 3.866E-09 alpha_mix =  0.700 |ddv_scf|^2 =  2.405E-16

      iter #  10 total cpu time : 34768.1 secs   av.it.:  24.9
      thresh= 1.551E-09 alpha_mix =  0.700 |ddv_scf|^2 =  2.433E-16

      iter #  11 total cpu time : 34813.0 secs   av.it.:  23.5
      thresh= 1.560E-09 alpha_mix =  0.700 |ddv_scf|^2 =  4.702E-16

      iter #  12 total cpu time : 34854.8 secs   av.it.:  20.9
      thresh= 2.168E-09 alpha_mix =  0.700 |ddv_scf|^2 =  2.388E-18

     End of self-consistent calculation

     Convergence has been achieved 

     Number of q in the star =    3
     List of q in the star:
          1   0.288675135  -0.500000000   0.000000000
          2  -0.577350269   0.000000000   0.000000000
          3   0.288675135   0.500000000   0.000000000

     Diagonalizing the dynamical matrix

     q = (    0.288675135  -0.500000000   0.000000000 ) 

 **************************************************************************
     freq (    1) =       1.188589 [THz] =      39.647057 [cm-1]
     freq (    2) =       1.486708 [THz] =      49.591234 [cm-1]
     freq (    3) =       1.502383 [THz] =      50.114098 [cm-1]
     freq (    4) =       1.864130 [THz] =      62.180673 [cm-1]
     freq (    5) =       2.107946 [THz] =      70.313512 [cm-1]
     freq (    6) =       2.570348 [THz] =      85.737575 [cm-1]
     freq (    7) =       2.637231 [THz] =      87.968560 [cm-1]
     freq (    8) =       2.716739 [THz] =      90.620654 [cm-1]
     freq (    9) =       3.028756 [THz] =     101.028421 [cm-1]
     freq (   10) =       3.087364 [THz] =     102.983390 [cm-1]
     freq (   11) =       3.232047 [THz] =     107.809495 [cm-1]
     freq (   12) =       3.288644 [THz] =     109.697343 [cm-1]
     freq (   13) =       3.703201 [THz] =     123.525487 [cm-1]
     freq (   14) =       3.825310 [THz] =     127.598596 [cm-1]
     freq (   15) =       4.106817 [THz] =     136.988674 [cm-1]
     freq (   16) =       4.136716 [THz] =     137.985988 [cm-1]
     freq (   17) =       4.190094 [THz] =     139.766490 [cm-1]
     freq (   18) =       4.281412 [THz] =     142.812542 [cm-1]
     freq (   19) =       4.542153 [THz] =     151.509915 [cm-1]
     freq (   20) =       4.599290 [THz] =     153.415787 [cm-1]
     freq (   21) =       4.601136 [THz] =     153.477372 [cm-1]
     freq (   22) =       4.918733 [THz] =     164.071264 [cm-1]
     freq (   23) =       5.075484 [THz] =     169.299931 [cm-1]
     freq (   24) =       5.109005 [THz] =     170.418049 [cm-1]
     freq (   25) =       5.909415 [THz] =     197.116868 [cm-1]
     freq (   26) =       6.341115 [THz] =     211.516837 [cm-1]
     freq (   27) =       6.518033 [THz] =     217.418185 [cm-1]
     freq (   28) =       6.975410 [THz] =     232.674647 [cm-1]
     freq (   29) =       7.231403 [THz] =     241.213636 [cm-1]
     freq (   30) =       7.522237 [THz] =     250.914825 [cm-1]
     freq (   31) =       7.878373 [THz] =     262.794253 [cm-1]
     freq (   32) =       8.174025 [THz] =     272.656130 [cm-1]
     freq (   33) =       8.353544 [THz] =     278.644240 [cm-1]
 **************************************************************************

     Mode symmetry, C_s (m)     point group:

     freq (   1-   1) =         39.6  [cm-1]   --> A'                 
     freq (   2-   2) =         49.6  [cm-1]   --> A''                
     freq (   3-   3) =         50.1  [cm-1]   --> A'                 
     freq (   4-   4) =         62.2  [cm-1]   --> A''                
     freq (   5-   5) =         70.3  [cm-1]   --> A''                
     freq (   6-   6) =         85.7  [cm-1]   --> A'                 
     freq (   7-   7) =         88.0  [cm-1]   --> A'                 
     freq (   8-   8) =         90.6  [cm-1]   --> A''                
     freq (   9-   9) =        101.0  [cm-1]   --> A'                 
     freq (  10-  10) =        103.0  [cm-1]   --> A'                 
     freq (  11-  11) =        107.8  [cm-1]   --> A''                
     freq (  12-  12) =        109.7  [cm-1]   --> A'                 
     freq (  13-  13) =        123.5  [cm-1]   --> A''                
     freq (  14-  14) =        127.6  [cm-1]   --> A'                 
     freq (  15-  15) =        137.0  [cm-1]   --> A''                
     freq (  16-  16) =        138.0  [cm-1]   --> A'                 
     freq (  17-  17) =        139.8  [cm-1]   --> A''                
     freq (  18-  18) =        142.8  [cm-1]   --> A'                 
     freq (  19-  19) =        151.5  [cm-1]   --> A'                 
     freq (  20-  20) =        153.4  [cm-1]   --> A''                
     freq (  21-  21) =        153.5  [cm-1]   --> A'                 
     freq (  22-  22) =        164.1  [cm-1]   --> A'                 
     freq (  23-  23) =        169.3  [cm-1]   --> A''                
     freq (  24-  24) =        170.4  [cm-1]   --> A'                 
     freq (  25-  25) =        197.1  [cm-1]   --> A''                
     freq (  26-  26) =        211.5  [cm-1]   --> A'                 
     freq (  27-  27) =        217.4  [cm-1]   --> A''                
     freq (  28-  28) =        232.7  [cm-1]   --> A''                
     freq (  29-  29) =        241.2  [cm-1]   --> A'                 
     freq (  30-  30) =        250.9  [cm-1]   --> A'                 
     freq (  31-  31) =        262.8  [cm-1]   --> A''                
     freq (  32-  32) =        272.7  [cm-1]   --> A'                 
     freq (  33-  33) =        278.6  [cm-1]   --> A'                 

     init_run     :      0.50s CPU     45.72s WALL (       1 calls)
     electrons    :     53.81s CPU     59.49s WALL (       1 calls)

     Called by init_run:
     wfcinit      :      0.00s CPU     44.59s WALL (       1 calls)
     potinit      :      0.07s CPU      0.66s WALL (       1 calls)
     hinit0       :      0.01s CPU      0.01s WALL (       1 calls)

     Called by electrons:
     c_bands      :     51.04s CPU     56.66s WALL (       1 calls)
     v_of_rho     :      0.12s CPU      0.14s WALL (       2 calls)

     Called by c_bands:
     init_us_2    :      8.63s CPU      9.48s WALL (    1445 calls)
     cegterg      :     33.89s CPU     36.62s WALL (      15 calls)

     Called by *egterg:
     cdiaghg      :      2.66s CPU      2.69s WALL (     283 calls)
     h_psi        :   4347.30s CPU   4738.12s WALL (   65374 calls)
     g_psi        :      0.12s CPU      0.12s WALL (     279 calls)

     Called by h_psi:
     h_psi:calbec :    553.96s CPU    566.63s WALL (   65374 calls)
     vloc_psi     :   3192.64s CPU   3559.27s WALL (   65374 calls)
     add_vuspsi   :    513.98s CPU    524.06s WALL (   65374 calls)

     General routines
     calbec       :   1249.28s CPU   1272.24s WALL (  130898 calls)
     fft          :     54.74s CPU     60.78s WALL (    9981 calls)
     ffts         :    361.15s CPU    365.47s WALL (    2970 calls)
     fftw         :   4251.02s CPU   4634.79s WALL ( 2920072 calls)
     davcio       :      1.91s CPU   4178.97s WALL (   13264 calls)

     Parallel routines

     PHONON       :  25838.82s CPU  34913.77s WALL

     INITIALIZATION: 
     phq_setup    :      0.29s CPU      0.53s WALL (       2 calls)
     phq_init     :     33.52s CPU     37.63s WALL (       2 calls)

     phq_init     :     33.52s CPU     37.63s WALL (       2 calls)
     init_vloc    :      0.01s CPU      0.01s WALL (       2 calls)
     init_us_1    :      0.00s CPU      0.00s WALL (       2 calls)
     init_us_2    :      8.63s CPU      9.48s WALL (    1445 calls)

     DYNAMICAL MATRIX:
     dynmat0      :     32.48s CPU     36.55s WALL (       2 calls)
     dynmat_us    :     30.87s CPU     31.19s WALL (       2 calls)
     d2ionq       :      0.26s CPU      0.26s WALL (       2 calls)
     phqscf       :  25700.82s CPU  34522.74s WALL (       2 calls)
     dynmatrix    :     11.55s CPU     11.74s WALL (       2 calls)

     phqscf       :  25700.82s CPU  34522.74s WALL (       2 calls)
     solve_linter :  25599.23s CPU  34263.43s WALL (      55 calls)
     sth_kernel   :   9184.77s CPU  11046.65s WALL (     734 calls)
     h_prec       :    874.52s CPU    881.31s WALL (    1237 calls)
     apply_dpot_b :    682.86s CPU    706.03s WALL (    1247 calls)
     ortho        :    101.51s CPU    102.61s WALL (    1346 calls)
     cgsolve      :   6152.43s CPU   6575.76s WALL (    1346 calls)
     incdrhoscf   :    663.83s CPU    686.03s WALL (    1346 calls)
                                        0.00s GPU  (    1346 calls)
     dv_of_drho   :     75.10s CPU     81.45s WALL (     843 calls)
     mix_pot      :   2171.17s CPU   6440.40s WALL (     734 calls)
     ef_shift     :      2.89s CPU      3.99s WALL (     231 calls)
     ef_shift_wfc :      0.02s CPU      5.30s WALL (      22 calls)
     localdos     :    228.29s CPU    230.89s WALL (      22 calls)
     drhodv       :    101.11s CPU    137.29s WALL (      55 calls)
     psymdvscf    :    387.50s CPU    433.76s WALL (     734 calls)

     dvqpsi_us    :    370.90s CPU    375.54s WALL (      99 calls)
                                        0.00s GPU  (      99 calls)
     dvqpsi_us_on :      4.34s CPU      4.45s WALL (      99 calls)

     add_vuspsi   :    513.98s CPU    524.06s WALL (   65374 calls)


      General routines
     calbec       :   1249.28s CPU   1272.24s WALL (  130898 calls)
     fft          :     54.74s CPU     60.78s WALL (    9981 calls)
     ffts         :    361.15s CPU    365.47s WALL (    2970 calls)
     fftw         :   4251.02s CPU   4634.79s WALL ( 2920072 calls)
     davcio       :      1.91s CPU   4178.97s WALL (   13264 calls)
     write_rec    :      2.10s CPU   2130.17s WALL (     789 calls)

      Additional routines
     ch_psi       :   5670.72s CPU   6083.15s WALL (   65076 calls)
     last         :   1146.04s CPU   1165.31s WALL (   65076 calls)
     Hesh         :     96.49s CPU     98.23s WALL (   65076 calls)
     ch_psi_all_k :   1049.00s CPU   1066.68s WALL (   65076 calls)
                                        0.00s GPU  (   65076 calls)
     ch_psi_calbe :    543.46s CPU    551.56s WALL (   65076 calls)
                                        0.00s GPU  (   65076 calls)
     h_psi_bgrp   :   4347.53s CPU   4738.26s WALL (   65374 calls)
     h_psi        :   4347.30s CPU   4738.12s WALL (   65374 calls)
     h_psi:pot    :   4261.30s CPU   4650.36s WALL (   65374 calls)
     h_psi:calbec :    553.96s CPU    566.63s WALL (   65374 calls)
     s_psi_bgrp   :    133.53s CPU    136.65s WALL (  131498 calls)


     PHONON       :  25838.82s CPU  34913.78s WALL


   This run was terminated on:   8: 5:20   8May2025            

=------------------------------------------------------------------------------=
   JOB DONE.
=------------------------------------------------------------------------------=
