
     Program PWSCF v.7.3.1 starts on  7May2025 at 22:21:12 

     This program is part of the open-source Quantum ESPRESSO suite
     for quantum simulation of materials; please cite
         "P. Giannozzi et al., J. Phys.:Condens. Matter 21 395502 (2009);
         "P. Giannozzi et al., J. Phys.:Condens. Matter 29 465901 (2017);
         "P. Giannozzi et al., J. Chem. Phys. 152 154105 (2020);
          URL http://www.quantum-espresso.org", 
     in publications or presentations arising from this work. More details at
     http://www.quantum-espresso.org/quote

     Parallel version (MPI & OpenMP), running on     384 processor cores
     Number of MPI processes:               384
     Threads/MPI process:                     1

     MPI processes distributed on     2 nodes
     337384 MiB available memory on the printing compute node when the environment starts

     Waiting for input...
     Reading input from standard input
Warning: card &CELL ignored
Warning: card / ignored
Warning: card &FCP ignored
Warning: card / ignored
Warning: card &RISM ignored
Warning: card / ignored

     Current dimensions of program PWSCF are:
     Max number of different atomic species (ntypx) = 10
     Max number of k-points (npk) =  40000
     Max angular momentum in pseudopotentials (lmaxx) =  4

     IMPORTANT: XC functional enforced from input :
     Exchange-correlation= PBE
                           (   1   4   3   4   0   0   0)
     Any further DFT definition will be discarded
     Please, verify this is what you really want

     Message from routine setup:
     using ibrav=0 with symmetry is DISCOURAGED, use correct ibrav instead

     K-points division:     npool     =      12
     R & G space division:  proc/nbgrp/npool/nimage =      32
     Subspace diagonalization in iterative solution of the eigenvalue problem:
     a serial algorithm will be used

     Message from routine divide_et_impera:
     suboptimal parallelization: some nodes have no k-points

     Parallelization info
     --------------------
     sticks:   dense  smooth     PW     G-vecs:    dense   smooth      PW
     Min         154     154     40                40066    40066    5474
     Max         155     155     41                40087    40087    5503
     Sum        4939    4939   1303              1282343  1282343  175515

     Using Slab Decomposition



     bravais-lattice index     =            0
     lattice parameter (alat)  =      13.3936  a.u.
     unit-cell volume          =    9490.8392 (a.u.)^3
     number of atoms/cell      =           11
     number of atomic types    =            2
     number of electrons       =        95.00
     number of Kohn-Sham states=           58
     kinetic-energy cutoff     =     100.0000  Ry
     charge density cutoff     =     400.0000  Ry
     scf convergence threshold =      1.0E-12
     mixing beta               =       0.7000
     number of iterations used =            8  plain     mixing
     Exchange-correlation= PBE
                           (   1   4   3   4   0   0   0)

     celldm(1)=  13.393593  celldm(2)=   0.000000  celldm(3)=   0.000000
     celldm(4)=   0.000000  celldm(5)=   0.000000  celldm(6)=   0.000000

     crystal axes: (cart. coord. in units of alat)
               a(1) = (   0.866025   0.500000   0.000000 )  
               a(2) = (  -0.866025   0.500000   0.000000 )  
               a(3) = (   0.000000   0.000000   4.561238 )  

     reciprocal axes: (cart. coord. in units 2 pi/alat)
               b(1) = (  0.577350  1.000000 -0.000000 )  
               b(2) = ( -0.577350  1.000000  0.000000 )  
               b(3) = (  0.000000 -0.000000  0.219239 )  


     PseudoPot. # 1 for Nb read from file:
     /scratch-shared/mroesner/Nb3X8_cDFPT/pp/Nb_ONCV_PBE-1.2.upf
     MD5 check sum: 2c750ac0b6910ff4cf0ab5f6c4124a64
     Pseudo is Norm-conserving, Zval = 13.0
     Generated using ONCVPSP code by D. R. Hamann
     Using radial grid of  602 points,  6 beta functions with: 
                l(1) =   0
                l(2) =   0
                l(3) =   1
                l(4) =   1
                l(5) =   2
                l(6) =   2

     PseudoPot. # 2 for Br read from file:
     /scratch-shared/mroesner/Nb3X8_cDFPT/pp/Br_ONCV_PBE-1.2.upf
     MD5 check sum: 5b50323dbf1c0ae0ed9e7f1e72c3f86c
     Pseudo is Norm-conserving, Zval =  7.0
     Generated using ONCVPSP code by D. R. Hamann
     Using radial grid of  602 points,  6 beta functions with: 
                l(1) =   0
                l(2) =   0
                l(3) =   1
                l(4) =   1
                l(5) =   2
                l(6) =   2

     atomic species   valence    mass     pseudopotential
     Nb               13.00    92.90637     Nb( 1.00)
     Br                7.00    79.90400     Br( 1.00)

      6 Sym. Ops. (no inversion) found


                                    s                        frac. trans.

      isym =  1     identity                                     

 cryst.   s( 1) = (     1          0          0      )
                  (     0          1          0      )
                  (     0          0          1      )

 cart.    s( 1) = (  1.0000000 -0.0000000  0.0000000 )
                  (  0.0000000  1.0000000  0.0000000 )
                  (  0.0000000  0.0000000  1.0000000 )


      isym =  2     120 deg rotation - cryst. axis [0,0,1]       

 cryst.   s( 2) = (     0          1          0      )
                  (    -1         -1          0      )
                  (     0          0          1      )

 cart.    s( 2) = ( -0.5000000 -0.8660254  0.0000000 )
                  (  0.8660254 -0.5000000  0.0000000 )
                  (  0.0000000  0.0000000  1.0000000 )


      isym =  3     120 deg rotation - cryst. axis [0,0,-1]      

 cryst.   s( 3) = (    -1         -1          0      )
                  (     1          0          0      )
                  (     0          0          1      )

 cart.    s( 3) = ( -0.5000000  0.8660254  0.0000000 )
                  ( -0.8660254 -0.5000000  0.0000000 )
                  (  0.0000000  0.0000000  1.0000000 )


      isym =  4     inv. 180 deg rotation - cart. axis [0,1,0]   

 cryst.   s( 4) = (     0         -1          0      )
                  (    -1          0          0      )
                  (     0          0          1      )

 cart.    s( 4) = (  1.0000000  0.0000000  0.0000000 )
                  (  0.0000000 -1.0000000  0.0000000 )
                  (  0.0000000  0.0000000  1.0000000 )


      isym =  5     inv. 180 deg rotation - cryst. axis [1,-1,0] 

 cryst.   s( 5) = (     1          1          0      )
                  (     0         -1          0      )
                  (     0          0          1      )

 cart.    s( 5) = ( -0.5000000  0.8660254  0.0000000 )
                  (  0.8660254  0.5000000  0.0000000 )
                  (  0.0000000  0.0000000  1.0000000 )


      isym =  6     inv. 180 deg rotation - cryst. axis [2,1,0]  

 cryst.   s( 6) = (    -1          0          0      )
                  (     1          1          0      )
                  (     0          0          1      )

 cart.    s( 6) = ( -0.5000000 -0.8660254  0.0000000 )
                  ( -0.8660254  0.5000000  0.0000000 )
                  (  0.0000000  0.0000000  1.0000000 )


   Cartesian axes

     site n.     atom                  positions (alat units)
         1        Nb     tau(   1) = (   0.2343915   0.0000000  -0.4658352  )
         2        Nb     tau(   2) = (  -0.1171958   0.2029890  -0.4658352  )
         3        Nb     tau(   3) = (  -0.1171958  -0.2029890  -0.4658352  )
         4        Br     tau(   4) = (   0.0000000   0.0000000  -0.7466792  )
         5        Br     tau(   5) = (  -0.8612291  -0.0000000  -0.6686237  )
         6        Br     tau(   6) = (  -0.4354109  -0.2458463  -0.6686237  )
         7        Br     tau(   7) = (  -0.4354109   0.2458463  -0.6686237  )
         8        Br     tau(   8) = (   0.5773503  -0.0000000  -0.2647046  )
         9        Br     tau(   9) = (  -0.2867850   0.0000000  -0.2154095  )
        10        Br     tau(  10) = (   0.1433925  -0.2483631  -0.2154095  )
        11        Br     tau(  11) = (   0.1433925   0.2483631  -0.2154095  )

     --------------------------------------------
     DFT-D3 Dispersion Correction (no 3-body):
     --------------------------------------------
       Reference C6 values for interpolation: 

         atom   Coordination number   C6
         Br         0.000           334.26
         Br         0.997           338.48
         Nb         0.000          2950.50
         Nb         1.954          1161.16
         Nb         2.922           857.79

       Values used:

         atom   Coordination number  R0_AB[au]  C6      C8
         Nb         8.071            3.647    857.79 111659.18
         Nb         8.071            3.647    857.79 111659.18
         Nb         8.071            3.647    857.79 111659.18
         Br         3.481            3.181    338.47  21401.43
         Br         2.747            3.181    338.47  21401.43
         Br         2.747            3.181    338.47  21401.43
         Br         2.747            3.181    338.47  21401.43
         Br         3.632            3.181    338.47  21401.43
         Br         2.682            3.181    338.47  21401.43
         Br         2.682            3.181    338.47  21401.43
         Br         2.682            3.181    338.47  21401.43

         Molecular C6 ( Ry / a.u.^6 ) =     54845.00


   Crystallographic axes

     site n.     atom                  positions (cryst. coord.)
         1        Nb     tau(   1) = (  0.1353260 -0.1353260 -0.1021291  )
         2        Nb     tau(   2) = (  0.1353260  0.2706520 -0.1021291  )
         3        Nb     tau(   3) = ( -0.2706520 -0.1353260 -0.1021291  )
         4        Br     tau(   4) = (  0.0000000  0.0000000 -0.1637010  )
         5        Br     tau(   5) = ( -0.4972308  0.4972308 -0.1465882  )
         6        Br     tau(   6) = ( -0.4972308  0.0055383 -0.1465882  )
         7        Br     tau(   7) = ( -0.0055383  0.4972308 -0.1465882  )
         8        Br     tau(   8) = (  0.3333333 -0.3333333 -0.0580335  )
         9        Br     tau(   9) = ( -0.1655754  0.1655754 -0.0472261  )
        10        Br     tau(  10) = ( -0.1655754 -0.3311508 -0.0472261  )
        11        Br     tau(  11) = (  0.3311508  0.1655754 -0.0472261  )

     number of k points=     7  Gaussian smearing, width (Ry)=  0.0037
                       cart. coord. in units 2pi/alat
        k(    1) = (   0.0000000   0.0000000   0.0000000), wk =   0.0555556
        k(    2) = (  -0.0962250   0.1666667   0.0000000), wk =   0.3333333
        k(    3) = (  -0.1924501   0.3333333   0.0000000), wk =   0.3333333
        k(    4) = (   0.2886751  -0.5000000   0.0000000), wk =   0.1666667
        k(    5) = (  -0.0000000   0.3333333   0.0000000), wk =   0.3333333
        k(    6) = (  -0.0962250   0.5000000   0.0000000), wk =   0.6666667
        k(    7) = (  -0.0000000   0.6666667   0.0000000), wk =   0.1111111

                       cryst. coord.
        k(    1) = (   0.0000000   0.0000000   0.0000000), wk =   0.0555556
        k(    2) = (  -0.0000000   0.1666667   0.0000000), wk =   0.3333333
        k(    3) = (  -0.0000000   0.3333333   0.0000000), wk =   0.3333333
        k(    4) = (   0.0000000  -0.5000000   0.0000000), wk =   0.1666667
        k(    5) = (   0.1666667   0.1666667   0.0000000), wk =   0.3333333
        k(    6) = (   0.1666667   0.3333333   0.0000000), wk =   0.6666667
        k(    7) = (   0.3333333   0.3333333   0.0000000), wk =   0.1111111

     Dense  grid:  1282343 G-vectors     FFT dimensions: (  90,  90, 400)

     Dynamical RAM for                 wfc:       4.43 MB

     Dynamical RAM for     wfc (w. buffer):       4.43 MB

     Dynamical RAM for           str. fact:       1.22 MB

     Dynamical RAM for           local pot:       0.00 MB

     Dynamical RAM for          nlocal pot:      15.13 MB

     Dynamical RAM for                qrad:       3.21 MB

     Dynamical RAM for          rho,v,vnew:       4.24 MB

     Dynamical RAM for               rhoin:       1.41 MB

     Dynamical RAM for            rho*nmix:       9.78 MB

     Dynamical RAM for           G-vectors:       2.60 MB

     Dynamical RAM for          h,s,v(r/c):       0.62 MB

     Dynamical RAM for          <psi|beta>:       0.18 MB

     Dynamical RAM for                 psi:       8.86 MB

     Dynamical RAM for                hpsi:       8.86 MB

     Dynamical RAM for      wfcinit/wfcrot:       8.94 MB

     Estimated static dynamical RAM per process >      38.10 MB

     Estimated max dynamical RAM per process >      66.41 MB

     Estimated total dynamical RAM >      21.54 GB

     Initial potential from superposition of free atoms

     starting charge      94.5747, renormalised to      95.0000

     negative rho (up, down):  1.652E-03 0.000E+00
     Starting wfcs are random

     total cpu time spent up to now is        2.1 secs

     per-process dynamical memory:   187.1 Mb

     Self-consistent Calculation

     iteration #  1     ecut=   100.00 Ry     beta= 0.70
     Davidson diagonalization with overlap

---- Real-time Memory Report at c_bands before calling an iterative solver
           214 MiB given to the printing process from OS
           182 MiB allocation reported by mallinfo(arena+hblkhd)
        325134 MiB available memory on the node where the printing process lives
------------------
     ethr =  1.00E-02,  avg # of iterations = 19.7

     Threshold (ethr) on eigenvalues was too large:
     Diagonalizing with lowered threshold

     Davidson diagonalization with overlap

---- Real-time Memory Report at c_bands before calling an iterative solver
           228 MiB given to the printing process from OS
           189 MiB allocation reported by mallinfo(arena+hblkhd)
        323634 MiB available memory on the node where the printing process lives
------------------
     c_bands:  3 eigenvalues not converged
     ethr =  4.44E-04,  avg # of iterations = 18.4

     negative rho (up, down):  1.651E-04 0.000E+00

     total cpu time spent up to now is        6.6 secs

     total energy              =    -558.94959736 Ry
     estimated scf accuracy    <       0.31262076 Ry

     iteration #  2     ecut=   100.00 Ry     beta= 0.70
     Davidson diagonalization with overlap

---- Real-time Memory Report at c_bands before calling an iterative solver
           229 MiB given to the printing process from OS
           189 MiB allocation reported by mallinfo(arena+hblkhd)
        323606 MiB available memory on the node where the printing process lives
------------------
     ethr =  3.29E-04,  avg # of iterations =  4.1

     negative rho (up, down):  9.916E-05 0.000E+00

     total cpu time spent up to now is        7.5 secs

     total energy              =    -558.98084175 Ry
     estimated scf accuracy    <       0.35737416 Ry

     iteration #  3     ecut=   100.00 Ry     beta= 0.70
     Davidson diagonalization with overlap

---- Real-time Memory Report at c_bands before calling an iterative solver
           238 MiB given to the printing process from OS
           198 MiB allocation reported by mallinfo(arena+hblkhd)
        323335 MiB available memory on the node where the printing process lives
------------------
     ethr =  3.29E-04,  avg # of iterations =  6.0

     negative rho (up, down):  5.774E-05 0.000E+00

     total cpu time spent up to now is        8.8 secs

     total energy              =    -559.05315961 Ry
     estimated scf accuracy    <       0.12120808 Ry

     iteration #  4     ecut=   100.00 Ry     beta= 0.70
     Davidson diagonalization with overlap

---- Real-time Memory Report at c_bands before calling an iterative solver
           241 MiB given to the printing process from OS
           199 MiB allocation reported by mallinfo(arena+hblkhd)
        323298 MiB available memory on the node where the printing process lives
------------------
     ethr =  1.28E-04,  avg # of iterations =  2.7

     negative rho (up, down):  2.412E-05 0.000E+00

     total cpu time spent up to now is        9.6 secs

     total energy              =    -559.07576869 Ry
     estimated scf accuracy    <       0.00611714 Ry

     iteration #  5     ecut=   100.00 Ry     beta= 0.70
     Davidson diagonalization with overlap

---- Real-time Memory Report at c_bands before calling an iterative solver
           243 MiB given to the printing process from OS
           201 MiB allocation reported by mallinfo(arena+hblkhd)
        323261 MiB available memory on the node where the printing process lives
------------------
     ethr =  6.44E-06,  avg # of iterations = 16.1

     negative rho (up, down):  7.199E-06 0.000E+00

     total cpu time spent up to now is       11.1 secs

     total energy              =    -559.07816972 Ry
     estimated scf accuracy    <       0.00806534 Ry

     iteration #  6     ecut=   100.00 Ry     beta= 0.70
     Davidson diagonalization with overlap

---- Real-time Memory Report at c_bands before calling an iterative solver
           244 MiB given to the printing process from OS
           202 MiB allocation reported by mallinfo(arena+hblkhd)
        323236 MiB available memory on the node where the printing process lives
------------------
     ethr =  6.44E-06,  avg # of iterations =  4.7

     negative rho (up, down):  6.277E-07 0.000E+00

     total cpu time spent up to now is       12.0 secs

     total energy              =    -559.07967607 Ry
     estimated scf accuracy    <       0.00052101 Ry

     iteration #  7     ecut=   100.00 Ry     beta= 0.70
     Davidson diagonalization with overlap

---- Real-time Memory Report at c_bands before calling an iterative solver
           247 MiB given to the printing process from OS
           203 MiB allocation reported by mallinfo(arena+hblkhd)
        323202 MiB available memory on the node where the printing process lives
------------------
     ethr =  5.48E-07,  avg # of iterations = 11.6

     total cpu time spent up to now is       13.5 secs

     total energy              =    -559.07990803 Ry
     estimated scf accuracy    <       0.00006383 Ry

     iteration #  8     ecut=   100.00 Ry     beta= 0.70
     Davidson diagonalization with overlap

---- Real-time Memory Report at c_bands before calling an iterative solver
           247 MiB given to the printing process from OS
           204 MiB allocation reported by mallinfo(arena+hblkhd)
        323199 MiB available memory on the node where the printing process lives
------------------
     ethr =  6.72E-08,  avg # of iterations = 10.3

     negative rho (up, down):  4.843E-07 0.000E+00

     total cpu time spent up to now is       15.2 secs

     total energy              =    -559.07995267 Ry
     estimated scf accuracy    <       0.00000945 Ry

     iteration #  9     ecut=   100.00 Ry     beta= 0.70
     Davidson diagonalization with overlap

---- Real-time Memory Report at c_bands before calling an iterative solver
           249 MiB given to the printing process from OS
           205 MiB allocation reported by mallinfo(arena+hblkhd)
        323175 MiB available memory on the node where the printing process lives
------------------
     ethr =  9.95E-09,  avg # of iterations =  5.1

     negative rho (up, down):  4.351E-07 0.000E+00

     total cpu time spent up to now is       16.3 secs

     total energy              =    -559.07995729 Ry
     estimated scf accuracy    <       0.00000284 Ry

     iteration # 10     ecut=   100.00 Ry     beta= 0.70
     Davidson diagonalization with overlap

---- Real-time Memory Report at c_bands before calling an iterative solver
           250 MiB given to the printing process from OS
           207 MiB allocation reported by mallinfo(arena+hblkhd)
        323143 MiB available memory on the node where the printing process lives
------------------
     ethr =  2.99E-09,  avg # of iterations =  6.1

     negative rho (up, down):  3.362E-08 0.000E+00

     total cpu time spent up to now is       17.4 secs

     total energy              =    -559.07995833 Ry
     estimated scf accuracy    <       0.00000023 Ry

     iteration # 11     ecut=   100.00 Ry     beta= 0.70
     Davidson diagonalization with overlap

---- Real-time Memory Report at c_bands before calling an iterative solver
           253 MiB given to the printing process from OS
           208 MiB allocation reported by mallinfo(arena+hblkhd)
        323113 MiB available memory on the node where the printing process lives
------------------
     ethr =  2.43E-10,  avg # of iterations = 14.3

     negative rho (up, down):  2.180E-08 0.000E+00

     total cpu time spent up to now is       19.0 secs

     total energy              =    -559.07995848 Ry
     estimated scf accuracy    <       0.00000006 Ry

     iteration # 12     ecut=   100.00 Ry     beta= 0.70
     Davidson diagonalization with overlap

---- Real-time Memory Report at c_bands before calling an iterative solver
           253 MiB given to the printing process from OS
           208 MiB allocation reported by mallinfo(arena+hblkhd)
        323122 MiB available memory on the node where the printing process lives
------------------
     ethr =  5.94E-11,  avg # of iterations =  6.3

     total cpu time spent up to now is       20.1 secs

     total energy              =    -559.07995849 Ry
     estimated scf accuracy    <          7.1E-09 Ry

     iteration # 13     ecut=   100.00 Ry     beta= 0.70
     Davidson diagonalization with overlap

---- Real-time Memory Report at c_bands before calling an iterative solver
           253 MiB given to the printing process from OS
           208 MiB allocation reported by mallinfo(arena+hblkhd)
        323112 MiB available memory on the node where the printing process lives
------------------
     ethr =  7.49E-12,  avg # of iterations = 10.0

     total cpu time spent up to now is       21.5 secs

     total energy              =    -559.07995850 Ry
     estimated scf accuracy    <          3.9E-10 Ry

     iteration # 14     ecut=   100.00 Ry     beta= 0.70
     Davidson diagonalization with overlap

---- Real-time Memory Report at c_bands before calling an iterative solver
           253 MiB given to the printing process from OS
           208 MiB allocation reported by mallinfo(arena+hblkhd)
        323123 MiB available memory on the node where the printing process lives
------------------
     ethr =  4.11E-13,  avg # of iterations = 14.1

     total cpu time spent up to now is       23.3 secs

     total energy              =    -559.07995850 Ry
     estimated scf accuracy    <          1.8E-10 Ry

     iteration # 15     ecut=   100.00 Ry     beta= 0.70
     Davidson diagonalization with overlap

---- Real-time Memory Report at c_bands before calling an iterative solver
           255 MiB given to the printing process from OS
           208 MiB allocation reported by mallinfo(arena+hblkhd)
        323133 MiB available memory on the node where the printing process lives
------------------
     ethr =  1.86E-13,  avg # of iterations =  5.1

     total cpu time spent up to now is       24.3 secs

     total energy              =    -559.07995850 Ry
     estimated scf accuracy    <          2.2E-11 Ry

     iteration # 16     ecut=   100.00 Ry     beta= 0.70
     Davidson diagonalization with overlap

---- Real-time Memory Report at c_bands before calling an iterative solver
           255 MiB given to the printing process from OS
           208 MiB allocation reported by mallinfo(arena+hblkhd)
        323139 MiB available memory on the node where the printing process lives
------------------
     ethr =  1.00E-13,  avg # of iterations =  3.0

     total cpu time spent up to now is       25.1 secs

     total energy              =    -559.07995850 Ry
     estimated scf accuracy    <          5.6E-12 Ry

     iteration # 17     ecut=   100.00 Ry     beta= 0.70
     Davidson diagonalization with overlap

---- Real-time Memory Report at c_bands before calling an iterative solver
           255 MiB given to the printing process from OS
           208 MiB allocation reported by mallinfo(arena+hblkhd)
        323141 MiB available memory on the node where the printing process lives
------------------
     ethr =  1.00E-13,  avg # of iterations =  1.0

     total cpu time spent up to now is       25.6 secs

     End of self-consistent calculation

          k = 0.0000 0.0000 0.0000 (160347 PWs)   bands (ev):

   -57.8279 -57.7535 -57.7535 -34.1737 -34.0143 -34.0108 -34.0108 -33.9206
   -33.9206 -33.7040 -33.5549 -33.5549 -18.9527 -18.4190 -17.8600 -17.8114
   -17.8114 -17.6714 -17.3182 -17.3182  -8.4679  -8.4679  -8.1406  -7.9175
    -7.5717  -7.5717  -7.3336  -7.2905  -6.8252  -6.8252  -6.1852  -5.9994
    -5.9994  -5.7819  -5.7205  -5.7205  -5.3314  -5.3314  -5.2993  -5.2049
    -4.5409  -4.5409  -3.9374  -3.9374  -3.5625  -2.9864  -2.9864  -1.9268
    -1.0637  -1.0637  -0.4272  -0.2471  -0.2471   0.1458   0.2097   0.2097
     0.4028   0.4028

     occupation numbers 
     1.0000   1.0000   1.0000   1.0000   1.0000   1.0000   1.0000   1.0000
     1.0000   1.0000   1.0000   1.0000   1.0000   1.0000   1.0000   1.0000
     1.0000   1.0000   1.0000   1.0000   1.0000   1.0000   1.0000   1.0000
     1.0000   1.0000   1.0000   1.0000   1.0000   1.0000   1.0000   1.0000
     1.0000   1.0000   1.0000   1.0000   1.0000   1.0000   1.0000   1.0000
     1.0000   1.0000   1.0000   1.0000   1.0000   1.0000   1.0000   0.1321
     0.0000   0.0000   0.0000   0.0000   0.0000   0.0000   0.0000   0.0000
     0.0000   0.0000

          k =-0.0962 0.1667 0.0000 (160353 PWs)   bands (ev):

   -57.8278 -57.7536 -57.7535 -34.1708 -34.0134 -34.0102 -34.0085 -33.9215
   -33.9206 -33.7056 -33.5590 -33.5557 -18.9364 -18.3909 -17.8885 -17.8288
   -17.8111 -17.6583 -17.3447 -17.3194  -8.3763  -8.3753  -8.0154  -7.8918
    -7.5573  -7.5183  -7.2817  -7.1878  -6.8521  -6.8406  -6.1792  -6.1719
    -6.0006  -5.9760  -5.7920  -5.6055  -5.4464  -5.4433  -5.2663  -5.1447
    -4.7181  -4.5541  -4.2152  -3.9906  -3.6242  -2.9996  -2.9664  -1.9317
    -1.0478  -1.0437  -0.4341  -0.2974  -0.2710  -0.0267   0.0735   0.1674
     0.4210   0.5985

     occupation numbers 
     1.0000   1.0000   1.0000   1.0000   1.0000   1.0000   1.0000   1.0000
     1.0000   1.0000   1.0000   1.0000   1.0000   1.0000   1.0000   1.0000
     1.0000   1.0000   1.0000   1.0000   1.0000   1.0000   1.0000   1.0000
     1.0000   1.0000   1.0000   1.0000   1.0000   1.0000   1.0000   1.0000
     1.0000   1.0000   1.0000   1.0000   1.0000   1.0000   1.0000   1.0000
     1.0000   1.0000   1.0000   1.0000   1.0000   1.0000   1.0000   0.1637
     0.0000   0.0000   0.0000   0.0000   0.0000   0.0000   0.0000   0.0000
     0.0000   0.0000

          k =-0.1925 0.3333 0.0000 (160313 PWs)   bands (ev):

   -57.8276 -57.7539 -57.7535 -34.1648 -34.0115 -34.0088 -34.0038 -33.9234
   -33.9207 -33.7090 -33.5675 -33.5573 -18.9043 -18.3055 -17.9976 -17.8404
   -17.8105 -17.6276 -17.4022 -17.3217  -8.1587  -8.1565  -7.9208  -7.6165
    -7.4910  -7.3232  -7.1687  -7.0386  -6.9280  -6.9060  -6.4376  -6.2519
    -6.2394  -6.0122  -5.9263  -5.7110  -5.6169  -5.5793  -5.2275  -5.1661
    -4.9552  -4.6790  -4.6178  -4.0896  -3.7349  -3.0382  -2.9279  -1.9859
    -1.0194  -0.9831  -0.5354  -0.3772  -0.3433  -0.1754   0.0385   0.1245
     0.3176   0.6395

     occupation numbers 
     1.0000   1.0000   1.0000   1.0000   1.0000   1.0000   1.0000   1.0000
     1.0000   1.0000   1.0000   1.0000   1.0000   1.0000   1.0000   1.0000
     1.0000   1.0000   1.0000   1.0000   1.0000   1.0000   1.0000   1.0000
     1.0000   1.0000   1.0000   1.0000   1.0000   1.0000   1.0000   1.0000
     1.0000   1.0000   1.0000   1.0000   1.0000   1.0000   1.0000   1.0000
     1.0000   1.0000   1.0000   1.0000   1.0000   1.0000   1.0000   0.7108
     0.0000   0.0000   0.0000   0.0000   0.0000   0.0000   0.0000   0.0000
     0.0000   0.0000

          k = 0.2887-0.5000 0.0000 (160226 PWs)   bands (ev):

   -57.8274 -57.7540 -57.7535 -34.1617 -34.0105 -34.0080 -34.0014 -33.9244
   -33.9208 -33.7107 -33.5718 -33.5581 -18.8884 -18.2038 -18.1141 -17.8434
   -17.8102 -17.6065 -17.4361 -17.3229  -8.0578  -8.0319  -7.7813  -7.5321
    -7.3783  -7.2551  -7.0706  -7.0584  -6.9802  -6.7174  -6.5988  -6.4138
    -6.3750  -6.0040  -6.0006  -5.9209  -5.7543  -5.6379  -5.2291  -5.0955
    -5.0205  -4.8667  -4.6756  -4.1325  -3.7833  -3.0640  -2.9110  -2.0280
    -1.0024  -0.9414  -0.6050  -0.4025  -0.3949  -0.2241   0.0504   0.1179
     0.2534   0.6273

     occupation numbers 
     1.0000   1.0000   1.0000   1.0000   1.0000   1.0000   1.0000   1.0000
     1.0000   1.0000   1.0000   1.0000   1.0000   1.0000   1.0000   1.0000
     1.0000   1.0000   1.0000   1.0000   1.0000   1.0000   1.0000   1.0000
     1.0000   1.0000   1.0000   1.0000   1.0000   1.0000   1.0000   1.0000
     1.0000   1.0000   1.0000   1.0000   1.0000   1.0000   1.0000   1.0000
     1.0000   1.0000   1.0000   1.0000   1.0000   1.0000   1.0000   0.9595
     0.0000   0.0000   0.0000   0.0000   0.0000   0.0000   0.0000   0.0000
     0.0000   0.0000

          k =-0.0000 0.3333 0.0000 (160321 PWs)   bands (ev):

   -57.8276 -57.7538 -57.7535 -34.1662 -34.0119 -34.0089 -34.0053 -33.9227
   -33.9209 -33.7081 -33.5649 -33.5574 -18.9123 -18.3337 -17.9408 -17.8842
   -17.7858 -17.6361 -17.3922 -17.3166  -8.2245  -8.2147  -7.9114  -7.7323
    -7.5248  -7.3647  -7.2120  -7.0388  -6.9265  -6.8706  -6.3883  -6.2558
    -6.1243  -6.0430  -5.9511  -5.6357  -5.5000  -5.4595  -5.3396  -5.0877
    -4.9480  -4.7177  -4.4469  -4.1362  -3.6856  -3.0319  -2.9339  -1.9524
    -1.0877  -0.9474  -0.4661  -0.3873  -0.3079  -0.1427  -0.0146   0.1273
     0.3920   0.7136

     occupation numbers 
     1.0000   1.0000   1.0000   1.0000   1.0000   1.0000   1.0000   1.0000
     1.0000   1.0000   1.0000   1.0000   1.0000   1.0000   1.0000   1.0000
     1.0000   1.0000   1.0000   1.0000   1.0000   1.0000   1.0000   1.0000
     1.0000   1.0000   1.0000   1.0000   1.0000   1.0000   1.0000   1.0000
     1.0000   1.0000   1.0000   1.0000   1.0000   1.0000   1.0000   1.0000
     1.0000   1.0000   1.0000   1.0000   1.0000   1.0000   1.0000   0.3473
     0.0000   0.0000   0.0000   0.0000   0.0000   0.0000   0.0000   0.0000
     0.0000   0.0000

          k =-0.0962 0.5000 0.0000 (160239 PWs)   bands (ev):

   -57.8274 -57.7540 -57.7535 -34.1617 -34.0104 -34.0073 -34.0025 -33.9238
   -33.9213 -33.7106 -33.5705 -33.5594 -18.8887 -18.2264 -18.0538 -17.9238
   -17.7656 -17.6040 -17.4508 -17.3122  -8.0985  -7.9779  -7.7733  -7.5615
    -7.4307  -7.2003  -7.0748  -7.0064  -6.9461  -6.8116  -6.6176  -6.4435
    -6.3120  -6.1072  -6.0786  -5.8098  -5.6776  -5.4669  -5.2692  -5.2364
    -4.9954  -4.8438  -4.6538  -4.2713  -3.7244  -3.0624  -2.9281  -1.9756
    -1.1110  -0.8582  -0.5318  -0.4019  -0.3788  -0.2555  -0.0798   0.1309
     0.3746   0.6819

     occupation numbers 
     1.0000   1.0000   1.0000   1.0000   1.0000   1.0000   1.0000   1.0000
     1.0000   1.0000   1.0000   1.0000   1.0000   1.0000   1.0000   1.0000
     1.0000   1.0000   1.0000   1.0000   1.0000   1.0000   1.0000   1.0000
     1.0000   1.0000   1.0000   1.0000   1.0000   1.0000   1.0000   1.0000
     1.0000   1.0000   1.0000   1.0000   1.0000   1.0000   1.0000   1.0000
     1.0000   1.0000   1.0000   1.0000   1.0000   1.0000   1.0000   0.6037
     0.0000   0.0000   0.0000   0.0000   0.0000   0.0000   0.0000   0.0000
     0.0000   0.0000

          k =-0.0000 0.6667 0.0000 (160113 PWs)   bands (ev):

   -57.8274 -57.7541 -57.7535 -34.1601 -34.0098 -34.0050 -34.0035 -33.9231
   -33.9224 -33.7113 -33.5713 -33.5612 -18.8812 -18.1544 -18.0679 -18.0102
   -17.7438 -17.5817 -17.4900 -17.3036  -8.0815  -7.7643  -7.7389  -7.6086
    -7.3650  -7.1547  -7.0817  -7.0438  -6.7792  -6.7158  -6.7115  -6.4854
    -6.3694  -6.2805  -6.2788  -5.7235  -5.6557  -5.4838  -5.3897  -5.2728
    -4.9221  -4.8350  -4.7060  -4.4565  -3.6989  -3.0606  -2.9611  -1.9375
    -1.1685  -0.7966  -0.4742  -0.3820  -0.3666  -0.3396  -0.2475   0.1843
     0.5425   0.5723

     occupation numbers 
     1.0000   1.0000   1.0000   1.0000   1.0000   1.0000   1.0000   1.0000
     1.0000   1.0000   1.0000   1.0000   1.0000   1.0000   1.0000   1.0000
     1.0000   1.0000   1.0000   1.0000   1.0000   1.0000   1.0000   1.0000
     1.0000   1.0000   1.0000   1.0000   1.0000   1.0000   1.0000   1.0000
     1.0000   1.0000   1.0000   1.0000   1.0000   1.0000   1.0000   1.0000
     1.0000   1.0000   1.0000   1.0000   1.0000   1.0000   1.0000   0.2075
     0.0000   0.0000   0.0000   0.0000   0.0000   0.0000   0.0000   0.0000
     0.0000   0.0000

     the Fermi energy is    -1.9663 ev

!    total energy              =    -559.07995850 Ry
     estimated scf accuracy    <          7.8E-13 Ry
     smearing contrib. (-TS)   =      -0.00164883 Ry
     internal energy E=F+TS    =    -559.07830966 Ry

     The total energy is F=E-TS. E is the sum of the following terms:
     one-electron contribution =   -5588.14984826 Ry
     hartree contribution      =    2790.39192865 Ry
     xc contribution           =     -82.90877981 Ry
     ewald contribution        =    2321.72310344 Ry
     DFT-D3 Dispersion         =      -0.13471368 Ry

     convergence has been achieved in  17 iterations

     Forces acting on atoms (cartesian axes, Ry/au):

     atom    1 type  1   force =    -0.00025876   -0.00000000    0.00025916
     atom    2 type  1   force =     0.00012938   -0.00022409    0.00025916
     atom    3 type  1   force =     0.00012938    0.00022409    0.00025916
     atom    4 type  2   force =     0.00000000    0.00000000   -0.00003509
     atom    5 type  2   force =     0.00001618    0.00000000   -0.00015479
     atom    6 type  2   force =    -0.00000809    0.00001402   -0.00015479
     atom    7 type  2   force =    -0.00000809   -0.00001402   -0.00015479
     atom    8 type  2   force =     0.00000000    0.00000000    0.00001002
     atom    9 type  2   force =    -0.00012335    0.00000000   -0.00009601
     atom   10 type  2   force =     0.00006168   -0.00010683   -0.00009601
     atom   11 type  2   force =     0.00006168    0.00010683   -0.00009601
     The non-local contrib.  to forces
     atom    1 type  1   force =    -0.20543497    0.00000000   -0.03707515
     atom    2 type  1   force =     0.10271749   -0.17791190   -0.03707515
     atom    3 type  1   force =     0.10271749    0.17791190   -0.03707515
     atom    4 type  2   force =     0.00000000    0.00000000    0.23111506
     atom    5 type  2   force =    -0.08891591    0.00000000    0.13740331
     atom    6 type  2   force =     0.04445796   -0.07700344    0.13740331
     atom    7 type  2   force =     0.04445796    0.07700344    0.13740331
     atom    8 type  2   force =    -0.00000000   -0.00000000   -0.15900550
     atom    9 type  2   force =     0.10778478   -0.00000000   -0.16036927
     atom   10 type  2   force =    -0.05389239    0.09334436   -0.16036927
     atom   11 type  2   force =    -0.05389239   -0.09334436   -0.16036927
     The ionic contribution  to forces
     atom    1 type  1   force =     9.45401642    0.00000000   -1.10996609
     atom    2 type  1   force =    -4.72700821    8.18741839   -1.10996609
     atom    3 type  1   force =    -4.72700821   -8.18741839   -1.10996609
     atom    4 type  2   force =     0.00000000   -0.00000000  -39.06654368
     atom    5 type  2   force =     2.92935145   -0.00000000  -26.60565361
     atom    6 type  2   force =    -1.46467573    2.53689277  -26.60565361
     atom    7 type  2   force =    -1.46467573   -2.53689277  -26.60565361
     atom    8 type  2   force =     0.00000000   -0.00000000   26.48300410
     atom    9 type  2   force =    -5.77850958    0.00000000   31.91013289
     atom   10 type  2   force =     2.88925479   -5.00433609   31.91013290
     atom   11 type  2   force =     2.88925479    5.00433609   31.91013290
     The local contribution  to forces
     atom    1 type  1   force =    -9.24722265   -0.00000000    1.14724797
     atom    2 type  1   force =     4.62361126   -8.00832970    1.14724797
     atom    3 type  1   force =     4.62361126    8.00832970    1.14724797
     atom    4 type  2   force =    -0.00000000    0.00000000   38.83434144
     atom    5 type  2   force =    -2.84115330    0.00000000   26.46700965
     atom    6 type  2   force =     1.42057665   -2.46051093   26.46700965
     atom    7 type  2   force =     1.42057665    2.46051093   26.46700965
     atom    8 type  2   force =     0.00000000   -0.00000000  -26.32459444
     atom    9 type  2   force =     5.67126233    0.00000000  -31.74816474
     atom   10 type  2   force =    -2.83563115    4.91145724  -31.74816475
     atom   11 type  2   force =    -2.83563115   -4.91145724  -31.74816475
     The core correction contribution to forces
     atom    1 type  1   force =     0.00000000    0.00000000    0.00000000
     atom    2 type  1   force =     0.00000000    0.00000000    0.00000000
     atom    3 type  1   force =     0.00000000    0.00000000    0.00000000
     atom    4 type  2   force =     0.00000000    0.00000000    0.00000000
     atom    5 type  2   force =     0.00000000    0.00000000    0.00000000
     atom    6 type  2   force =     0.00000000    0.00000000    0.00000000
     atom    7 type  2   force =     0.00000000    0.00000000    0.00000000
     atom    8 type  2   force =     0.00000000    0.00000000    0.00000000
     atom    9 type  2   force =     0.00000000    0.00000000    0.00000000
     atom   10 type  2   force =     0.00000000    0.00000000    0.00000000
     atom   11 type  2   force =     0.00000000    0.00000000    0.00000000
     The Hubbard contrib.    to forces
     atom    1 type  1   force =     0.00000000    0.00000000    0.00000000
     atom    2 type  1   force =     0.00000000    0.00000000    0.00000000
     atom    3 type  1   force =     0.00000000    0.00000000    0.00000000
     atom    4 type  2   force =     0.00000000    0.00000000    0.00000000
     atom    5 type  2   force =     0.00000000    0.00000000    0.00000000
     atom    6 type  2   force =     0.00000000    0.00000000    0.00000000
     atom    7 type  2   force =     0.00000000    0.00000000    0.00000000
     atom    8 type  2   force =     0.00000000    0.00000000    0.00000000
     atom    9 type  2   force =     0.00000000    0.00000000    0.00000000
     atom   10 type  2   force =     0.00000000    0.00000000    0.00000000
     atom   11 type  2   force =     0.00000000    0.00000000    0.00000000
     The SCF correction term to forces
     atom    1 type  1   force =     0.00000102   -0.00000000    0.00000032
     atom    2 type  1   force =    -0.00000051    0.00000088    0.00000032
     atom    3 type  1   force =    -0.00000051   -0.00000088    0.00000032
     atom    4 type  2   force =     0.00000000    0.00000000   -0.00000040
     atom    5 type  2   force =    -0.00000020   -0.00000000    0.00000007
     atom    6 type  2   force =     0.00000010   -0.00000017    0.00000007
     atom    7 type  2   force =     0.00000010    0.00000017    0.00000007
     atom    8 type  2   force =     0.00000000    0.00000000   -0.00000053
     atom    9 type  2   force =    -0.00000017   -0.00000000   -0.00000035
     atom   10 type  2   force =     0.00000009   -0.00000015   -0.00000035
     atom   11 type  2   force =     0.00000009    0.00000015   -0.00000035

     DFT-D3 dispersion contribution to forces:
     atom    1 type  1   force =    -0.00161861   -0.00000000    0.00005312
     atom    2 type  1   force =     0.00080931   -0.00140176    0.00005312
     atom    3 type  1   force =     0.00080931    0.00140176    0.00005312
     atom    4 type  2   force =     0.00000000    0.00000000    0.00105349
     atom    5 type  2   force =     0.00073414   -0.00000000    0.00108680
     atom    6 type  2   force =    -0.00036707    0.00063578    0.00108680
     atom    7 type  2   force =    -0.00036707   -0.00063578    0.00108680
     atom    8 type  2   force =    -0.00000000   -0.00000000    0.00060739
     atom    9 type  2   force =    -0.00066070    0.00000000   -0.00169354
     atom   10 type  2   force =     0.00033035   -0.00057218   -0.00169354
     atom   11 type  2   force =     0.00033035    0.00057218   -0.00169354

     Total force =     0.000741     Total SCF correction =     0.000002

     DFT-D3 dispersion Force =     0.004942


     Computing stress (Cartesian axis) and pressure

          total   stress  (Ry/bohr**3)                   (kbar)     P=        0.54
   0.00000561  -0.00000000   0.00000000            0.82       -0.00        0.00
  -0.00000000   0.00000561   0.00000000           -0.00        0.82        0.00
   0.00000000   0.00000000  -0.00000021            0.00        0.00       -0.03

     kinetic stress (kbar)   1817.52      0.00      0.00
                                0.00   1817.52      0.00
                                0.00      0.00   1795.34

     local   stress (kbar) -84827.87      0.00     -0.00
                                0.00 -84827.87     -0.00
                               -0.00     -0.00  83297.10

     nonloc. stress (kbar)    965.36      0.00     -0.00
                               -0.00    965.36     -0.00
                               -0.00      0.00    969.64

     hartree stress (kbar)  42040.22      0.00     -0.00
                                0.00  42040.22      0.00
                               -0.00      0.00 -40830.23

     exc-cor stress (kbar)   -400.60     -0.00     -0.00
                               -0.00   -400.60      0.00
                               -0.00      0.00   -401.70

     corecor stress (kbar)      0.00      0.00      0.00
                                0.00      0.00      0.00
                                0.00      0.00      0.00

     ewald   stress (kbar)  40407.87     -0.00      0.00
                               -0.00  40407.87      0.00
                                0.00      0.00 -44829.74

     hubbard stress (kbar)      0.00      0.00      0.00
                                0.00      0.00      0.00
                                0.00      0.00      0.00

     DFT-D   stress (kbar)     -1.68      0.00      0.00
                                0.00     -1.68     -0.00
                                0.00     -0.00     -0.44

     XDM     stress (kbar)      0.00      0.00      0.00
                                0.00      0.00      0.00
                                0.00      0.00      0.00

     dft-nl  stress (kbar)      0.00      0.00      0.00
                                0.00      0.00      0.00
                                0.00      0.00      0.00

     TS-vdW  stress (kbar)      0.00      0.00      0.00
                                0.00      0.00      0.00
                                0.00      0.00      0.00

     MDB     stress (kbar)      0.00      0.00      0.00
                                0.00      0.00      0.00
                                0.00      0.00      0.00

     3D-RISM stress (kbar)      0.00      0.00      0.00
                                0.00      0.00      0.00
                                0.00      0.00      0.00


     Writing all to output data dir ./out/Nb3Br8.save/ :
     XML data file, charge density, pseudopotentials, collected wavefunctions

     init_run     :      1.19s CPU      1.33s WALL (       1 calls)
     electrons    :     21.88s CPU     32.74s WALL (       1 calls)
     forces       :      0.18s CPU      0.21s WALL (       1 calls)
     force_dftd3  :      0.01s CPU      0.01s WALL (       1 calls)
     stress       :      1.38s CPU      1.45s WALL (       1 calls)
     stres_dftd3  :      0.00s CPU      0.00s WALL (       1 calls)

     Called by init_run:
     wfcinit      :      0.17s CPU      0.21s WALL (       1 calls)
     wfcinit:wfcr :      0.15s CPU      0.17s WALL (       1 calls)
     potinit      :      0.07s CPU      0.08s WALL (       1 calls)
     hinit0       :      0.51s CPU      0.55s WALL (       1 calls)

     Called by electrons:
     c_bands      :     18.51s CPU     19.77s WALL (      18 calls)
     sum_band     :      1.51s CPU      1.71s WALL (      18 calls)
     v_of_rho     :      1.15s CPU      1.28s WALL (      18 calls)
     v_h          :      0.09s CPU      0.11s WALL (      18 calls)
     v_xc         :      1.05s CPU      1.17s WALL (      18 calls)
     mix_rho      :      0.40s CPU      0.42s WALL (      18 calls)
     energy_dftd3 :      0.00s CPU      0.00s WALL (       1 calls)

     Called by c_bands:
     init_us_2    :      0.67s CPU      0.69s WALL (      37 calls)
     cegterg      :     14.37s CPU     15.56s WALL (      18 calls)

     Called by sum_band:
     sum_band:wei :      0.04s CPU      0.04s WALL (      18 calls)
     sum_band:loo :      1.28s CPU      1.41s WALL (      18 calls)
     sum_band:buf :      0.00s CPU      0.00s WALL (      18 calls)
     sum_band:ini :      0.35s CPU      0.36s WALL (      18 calls)

     Called by *egterg:
     cdiaghg      :      0.67s CPU      0.67s WALL (     165 calls)
     cegterg:over :      1.16s CPU      1.18s WALL (     148 calls)
     cegterg:upda :      0.95s CPU      0.97s WALL (     148 calls)
     cegterg:last :      1.33s CPU      1.35s WALL (      62 calls)
     h_psi        :     10.01s CPU     11.16s WALL (     167 calls)
     g_psi        :      0.05s CPU      0.05s WALL (     148 calls)

     Called by h_psi:
     h_psi:calbec :      1.48s CPU      1.52s WALL (     167 calls)
     vloc_psi     :      6.87s CPU      7.93s WALL (     167 calls)
     add_vuspsi   :      1.49s CPU      1.51s WALL (     167 calls)

     General routines
     calbec       :      1.56s CPU      1.60s WALL (     172 calls)
     fft          :      0.92s CPU      1.06s WALL (     188 calls)
     ffts         :      0.03s CPU      0.05s WALL (      18 calls)
     fftw         :      7.03s CPU      8.13s WALL (    9120 calls)

     Parallel routines

     PWSCF        :     25.15s CPU     76.62s WALL


   This run was terminated on:  22:22:28   7May2025            

=------------------------------------------------------------------------------=
   JOB DONE.
=------------------------------------------------------------------------------=
