
     Program PWSCF v.7.3.1 starts on  5Jul2025 at 18:14:39 

     This program is part of the open-source Quantum ESPRESSO suite
     for quantum simulation of materials; please cite
         "P. Giannozzi et al., J. Phys.:Condens. Matter 21 395502 (2009);
         "P. Giannozzi et al., J. Phys.:Condens. Matter 29 465901 (2017);
         "P. Giannozzi et al., J. Chem. Phys. 152 154105 (2020);
          URL http://www.quantum-espresso.org", 
     in publications or presentations arising from this work. More details at
     http://www.quantum-espresso.org/quote

     Parallel version (MPI & OpenMP), running on     384 processor cores
     Number of MPI processes:               384
     Threads/MPI process:                     1

     MPI processes distributed on     2 nodes
     341227 MiB available memory on the printing compute node when the environment starts

     Waiting for input...
     Reading input from standard input
Warning: card &FCP ignored
Warning: card / ignored
Warning: card &RISM ignored
Warning: card / ignored

     Current dimensions of program PWSCF are:
     Max number of different atomic species (ntypx) = 10
     Max number of k-points (npk) =  40000
     Max angular momentum in pseudopotentials (lmaxx) =  4

     IMPORTANT: XC functional enforced from input :
     Exchange-correlation= PBE
                           (   1   4   3   4   0   0   0)
     Any further DFT definition will be discarded
     Please, verify this is what you really want

     Message from routine setup:
     using ibrav=0 with symmetry is DISCOURAGED, use correct ibrav instead

     K-points division:     npool     =      16
     R & G space division:  proc/nbgrp/npool/nimage =      24
     Subspace diagonalization in iterative solution of the eigenvalue problem:
     a serial algorithm will be used


     Parallelization info
     --------------------
     sticks:   dense  smooth     PW     G-vecs:    dense   smooth      PW
     Min         205     205     54                21363    21363    2923
     Max         206     206     55                21377    21377    2932
     Sum        4939    4939   1303               512903   512903   70299

     Using Slab Decomposition



     bravais-lattice index     =            0
     lattice parameter (alat)  =      13.3936  a.u.
     unit-cell volume          =    3796.3357 (a.u.)^3
     number of atoms/cell      =           22
     number of atomic types    =            2
     number of electrons       =       190.00
     number of Kohn-Sham states=          114
     kinetic-energy cutoff     =     100.0000  Ry
     charge density cutoff     =     400.0000  Ry
     scf convergence threshold =      1.0E-12
     mixing beta               =       0.7000
     number of iterations used =            8  plain     mixing
     energy convergence thresh.=      1.0E-04
     force convergence thresh. =      1.0E-06
     press convergence thresh. =      5.0E-01
     Exchange-correlation= PBE
                           (   1   4   3   4   0   0   0)
     nstep                     =           50


     celldm(1)=  13.393593  celldm(2)=   0.000000  celldm(3)=   0.000000
     celldm(4)=   0.000000  celldm(5)=   0.000000  celldm(6)=   0.000000

     crystal axes: (cart. coord. in units of alat)
               a(1) = (   0.866025   0.500000   0.000000 )  
               a(2) = (  -0.866025   0.500000   0.000000 )  
               a(3) = (  -0.577350   0.000000   1.824495 )  

     reciprocal axes: (cart. coord. in units 2 pi/alat)
               b(1) = (  0.577350  1.000000  0.182699 )  
               b(2) = ( -0.577350  1.000000 -0.182699 )  
               b(3) = (  0.000000 -0.000000  0.548097 )  


     PseudoPot. # 1 for Nb read from file:
     /scratch-shared/mroesner/Nb3X8_cDFPT/pp/Nb_ONCV_PBE-1.2.upf
     MD5 check sum: 2c750ac0b6910ff4cf0ab5f6c4124a64
     Pseudo is Norm-conserving, Zval = 13.0
     Generated using ONCVPSP code by D. R. Hamann
     Using radial grid of  602 points,  6 beta functions with: 
                l(1) =   0
                l(2) =   0
                l(3) =   1
                l(4) =   1
                l(5) =   2
                l(6) =   2

     PseudoPot. # 2 for Br read from file:
     /scratch-shared/mroesner/Nb3X8_cDFPT/pp/Br_ONCV_PBE-1.2.upf
     MD5 check sum: 5b50323dbf1c0ae0ed9e7f1e72c3f86c
     Pseudo is Norm-conserving, Zval =  7.0
     Generated using ONCVPSP code by D. R. Hamann
     Using radial grid of  602 points,  6 beta functions with: 
                l(1) =   0
                l(2) =   0
                l(3) =   1
                l(4) =   1
                l(5) =   2
                l(6) =   2

     atomic species   valence    mass     pseudopotential
     Nb               13.00    92.90637     Nb( 1.00)
     Br                7.00    79.90400     Br( 1.00)

     12 Sym. Ops., with inversion, found


                                    s                        frac. trans.

      isym =  1     identity                                     

 cryst.   s( 1) = (     1          0          0      )
                  (     0          1          0      )
                  (     0          0          1      )

 cart.    s( 1) = (  1.0000000  0.0000000  0.0000000 )
                  (  0.0000000  1.0000000  0.0000000 )
                  (  0.0000000  0.0000000  1.0000000 )


      isym =  2     180 deg rotation - cart. axis [0,1,0]        

 cryst.   s( 2) = (     0          1          0      )
                  (     1          0          0      )
                  (     0          0         -1      )

 cart.    s( 2) = ( -1.0000000  0.0000000 -0.0000000 )
                  (  0.0000000  1.0000000  0.0000000 )
                  (  0.0000000  0.0000000 -1.0000000 )


      isym =  3     120 deg rotation - cryst. axis [0,0,1]       

 cryst.   s( 3) = (     0          1          0      )
                  (    -1         -1          0      )
                  (     0         -1          1      )

 cart.    s( 3) = ( -0.5000000 -0.8660254  0.0000000 )
                  (  0.8660254 -0.5000000  0.0000000 )
                  (  0.0000000  0.0000000  1.0000000 )


      isym =  4     120 deg rotation - cryst. axis [0,0,-1]      

 cryst.   s( 4) = (    -1         -1          0      )
                  (     1          0          0      )
                  (     1          0          1      )

 cart.    s( 4) = ( -0.5000000  0.8660254 -0.0000000 )
                  ( -0.8660254 -0.5000000 -0.0000000 )
                  (  0.0000000  0.0000000  1.0000000 )


      isym =  5     180 deg rotation - cryst. axis [1,-1,0]      

 cryst.   s( 5) = (    -1         -1          0      )
                  (     0          1          0      )
                  (     0          1         -1      )

 cart.    s( 5) = (  0.5000000 -0.8660254 -0.0000000 )
                  ( -0.8660254 -0.5000000 -0.0000000 )
                  (  0.0000000  0.0000000 -1.0000000 )


      isym =  6     180 deg rotation - cryst. axis [2,1,0]       

 cryst.   s( 6) = (     1          0          0      )
                  (    -1         -1          0      )
                  (    -1          0         -1      )

 cart.    s( 6) = (  0.5000000  0.8660254  0.0000000 )
                  (  0.8660254 -0.5000000  0.0000000 )
                  (  0.0000000  0.0000000 -1.0000000 )


      isym =  7     inversion                                    

 cryst.   s( 7) = (    -1          0          0      )
                  (     0         -1          0      )
                  (     0          0         -1      )

 cart.    s( 7) = ( -1.0000000  0.0000000 -0.0000000 )
                  (  0.0000000 -1.0000000  0.0000000 )
                  (  0.0000000  0.0000000 -1.0000000 )


      isym =  8     inv. 180 deg rotation - cart. axis [0,1,0]   

 cryst.   s( 8) = (     0         -1          0      )
                  (    -1          0          0      )
                  (     0          0          1      )

 cart.    s( 8) = (  1.0000000  0.0000000  0.0000000 )
                  (  0.0000000 -1.0000000  0.0000000 )
                  (  0.0000000  0.0000000  1.0000000 )


      isym =  9     inv. 120 deg rotation - cryst. axis [0,0,1]  

 cryst.   s( 9) = (     0         -1          0      )
                  (     1          1          0      )
                  (     0          1         -1      )

 cart.    s( 9) = (  0.5000000  0.8660254 -0.0000000 )
                  ( -0.8660254  0.5000000 -0.0000000 )
                  (  0.0000000  0.0000000 -1.0000000 )


      isym = 10     inv. 120 deg rotation - cryst. axis [0,0,-1] 

 cryst.   s(10) = (     1          1          0      )
                  (    -1          0          0      )
                  (    -1          0         -1      )

 cart.    s(10) = (  0.5000000 -0.8660254  0.0000000 )
                  (  0.8660254  0.5000000  0.0000000 )
                  (  0.0000000  0.0000000 -1.0000000 )


      isym = 11     inv. 180 deg rotation - cryst. axis [1,-1,0] 

 cryst.   s(11) = (     1          1          0      )
                  (     0         -1          0      )
                  (     0         -1          1      )

 cart.    s(11) = ( -0.5000000  0.8660254  0.0000000 )
                  (  0.8660254  0.5000000  0.0000000 )
                  (  0.0000000  0.0000000  1.0000000 )


      isym = 12     inv. 180 deg rotation - cryst. axis [2,1,0]  

 cryst.   s(12) = (    -1          0          0      )
                  (     1          1          0      )
                  (     1          0          1      )

 cart.    s(12) = ( -0.5000000 -0.8660254 -0.0000000 )
                  ( -0.8660254  0.5000000 -0.0000000 )
                  (  0.0000000  0.0000000  1.0000000 )


   Cartesian axes

     site n.     atom                  positions (alat units)
         1        Nb     tau(   1) = (   0.2336976  -0.0000000  -0.4610860  )
         2        Nb     tau(   2) = (  -0.1168488   0.2023881  -0.4610860  )
         3        Nb     tau(   3) = (  -0.1168488  -0.2023881  -0.4610860  )
         4        Nb     tau(   4) = (  -0.2336976   0.0000000   0.4610860  )
         5        Nb     tau(   5) = (   0.1168488  -0.2023881   0.4610860  )
         6        Nb     tau(   6) = (   0.1168488   0.2023881   0.4610860  )
         7        Br     tau(   7) = (  -0.0000000   0.0000000  -0.7391137  )
         8        Br     tau(   8) = (   0.8717013  -0.0000000  -0.6642212  )
         9        Br     tau(   9) = (   0.4301747   0.2549155  -0.6642212  )
        10        Br     tau(  10) = (   0.4301747  -0.2549155  -0.6642212  )
        11        Br     tau(  11) = (   0.5773503   0.0000000  -0.2610780  )
        12        Br     tau(  12) = (  -0.2882406   0.0000000  -0.2145794  )
        13        Br     tau(  13) = (   0.1441203  -0.2496236  -0.2145794  )
        14        Br     tau(  14) = (   0.1441203   0.2496236  -0.2145794  )
        15        Br     tau(  15) = (   0.2882406  -0.0000000   0.2145794  )
        16        Br     tau(  16) = (  -0.1441203   0.2496236   0.2145794  )
        17        Br     tau(  17) = (  -0.1441203  -0.2496236   0.2145794  )
        18        Br     tau(  18) = (  -0.5773503   0.0000000   0.2610780  )
        19        Br     tau(  19) = (  -0.8717013   0.0000000   0.6642212  )
        20        Br     tau(  20) = (  -0.4301747  -0.2549155   0.6642212  )
        21        Br     tau(  21) = (  -0.4301747   0.2549155   0.6642212  )
        22        Br     tau(  22) = (  -0.0000000   0.0000000   0.7391137  )

     --------------------------------------------
     DFT-D3 Dispersion Correction (no 3-body):
     --------------------------------------------
       Reference C6 values for interpolation: 

         atom   Coordination number   C6
         Br         0.000           334.26
         Br         0.997           338.48
         Nb         0.000          2950.50
         Nb         1.954          1161.16
         Nb         2.922           857.79

       Values used:

         atom   Coordination number  R0_AB[au]  C6      C8
         Nb         8.106            3.647    857.79 111659.18
         Nb         8.106            3.647    857.79 111659.18
         Nb         8.106            3.647    857.79 111659.18
         Nb         8.106            3.647    857.79 111659.18
         Nb         8.106            3.647    857.79 111659.18
         Nb         8.106            3.647    857.79 111659.18
         Br         3.724            3.181    338.47  21401.43
         Br         2.877            3.181    338.47  21401.43
         Br         2.877            3.181    338.47  21401.43
         Br         2.877            3.181    338.47  21401.43
         Br         3.724            3.181    338.47  21401.43
         Br         2.864            3.181    338.47  21401.43
         Br         2.864            3.181    338.47  21401.43
         Br         2.864            3.181    338.47  21401.43
         Br         2.864            3.181    338.47  21401.43
         Br         2.864            3.181    338.47  21401.43
         Br         2.864            3.181    338.47  21401.43
         Br         3.724            3.181    338.47  21401.43
         Br         2.877            3.181    338.47  21401.43
         Br         2.877            3.181    338.47  21401.43
         Br         2.877            3.181    338.47  21401.43
         Br         3.724            3.181    338.47  21401.43

         Molecular C6 ( Ry / a.u.^6 ) =    219379.98


   Crystallographic axes

     site n.     atom                  positions (cryst. coord.)
         1        Nb     tau(   1) = (  0.0506855 -0.0506855 -0.2527198  )
         2        Nb     tau(   2) = (  0.0506855  0.3540907 -0.2527198  )
         3        Nb     tau(   3) = ( -0.3540907 -0.0506855 -0.2527198  )
         4        Nb     tau(   4) = ( -0.0506855  0.0506855  0.2527198  )
         5        Nb     tau(   5) = ( -0.0506855 -0.3540907  0.2527198  )
         6        Nb     tau(   6) = (  0.3540907  0.0506855  0.2527198  )
         7        Br     tau(   7) = ( -0.1350353  0.1350353 -0.4051059  )
         8        Br     tau(   8) = (  0.3819245 -0.3819245 -0.3640575  )
         9        Br     tau(   9) = (  0.3819245  0.1279065 -0.3640575  )
        10        Br     tau(  10) = ( -0.1279065 -0.3819245 -0.3640575  )
        11        Br     tau(  11) = (  0.2856347 -0.2856347 -0.1430960  )
        12        Br     tau(  12) = ( -0.2056192  0.2056192 -0.1176103  )
        13        Br     tau(  13) = ( -0.2056192 -0.2936281 -0.1176103  )
        14        Br     tau(  14) = (  0.2936281  0.2056192 -0.1176103  )
        15        Br     tau(  15) = (  0.2056192 -0.2056192  0.1176103  )
        16        Br     tau(  16) = (  0.2056192  0.2936281  0.1176103  )
        17        Br     tau(  17) = ( -0.2936281 -0.2056192  0.1176103  )
        18        Br     tau(  18) = ( -0.2856347  0.2856347  0.1430960  )
        19        Br     tau(  19) = ( -0.3819245  0.3819245  0.3640575  )
        20        Br     tau(  20) = ( -0.3819245 -0.1279065  0.3640575  )
        21        Br     tau(  21) = (  0.1279065  0.3819245  0.3640575  )
        22        Br     tau(  22) = (  0.1350353 -0.1350353  0.4051059  )

     number of k points=    32  Marzari-Vanderbilt smearing, width (Ry)=  0.0037
                       cart. coord. in units 2pi/alat
        k(    1) = (   0.0000000   0.0000000   0.0000000), wk =   0.0092593
        k(    2) = (   0.0000000   0.0000000   0.0913495), wk =   0.0185185
        k(    3) = (   0.0000000   0.0000000   0.1826989), wk =   0.0185185
        k(    4) = (   0.0000000   0.0000000  -0.2740484), wk =   0.0092593
        k(    5) = (  -0.0962250   0.1666667  -0.0304498), wk =   0.0555556
        k(    6) = (  -0.0962250   0.1666667   0.0608996), wk =   0.0555556
        k(    7) = (  -0.0962250   0.1666667   0.1522491), wk =   0.0555556
        k(    8) = (  -0.0962250   0.1666667  -0.3044982), wk =   0.0555556
        k(    9) = (  -0.0962250   0.1666667  -0.2131488), wk =   0.0555556
        k(   10) = (  -0.0962250   0.1666667  -0.1217993), wk =   0.0555556
        k(   11) = (  -0.1924501   0.3333333  -0.0608996), wk =   0.0555556
        k(   12) = (  -0.1924501   0.3333333   0.0304498), wk =   0.0555556
        k(   13) = (  -0.1924501   0.3333333   0.1217993), wk =   0.0555556
        k(   14) = (  -0.1924501   0.3333333  -0.3349481), wk =   0.0555556
        k(   15) = (  -0.1924501   0.3333333  -0.2435986), wk =   0.0555556
        k(   16) = (  -0.1924501   0.3333333  -0.1522491), wk =   0.0555556
        k(   17) = (   0.2886751  -0.5000000   0.0913495), wk =   0.0277778
        k(   18) = (   0.2886751  -0.5000000   0.1826989), wk =   0.0555556
        k(   19) = (   0.2886751  -0.5000000   0.2740484), wk =   0.0555556
        k(   20) = (   0.2886751  -0.5000000  -0.1826989), wk =   0.0277778
        k(   21) = (   0.0000000   0.3333333  -0.0000000), wk =   0.0555556
        k(   22) = (   0.0000000   0.3333333   0.0913495), wk =   0.1111111
        k(   23) = (   0.0000000   0.3333333   0.1826989), wk =   0.1111111
        k(   24) = (   0.0000000   0.3333333  -0.2740484), wk =   0.0555556
        k(   25) = (  -0.0962250   0.5000000  -0.0304498), wk =   0.1111111
        k(   26) = (  -0.0962250   0.5000000   0.0608996), wk =   0.1111111
        k(   27) = (  -0.0962250   0.5000000   0.1522491), wk =   0.1111111
        k(   28) = (  -0.0962250   0.5000000  -0.3044982), wk =   0.1111111
        k(   29) = (  -0.0962250   0.5000000  -0.2131488), wk =   0.1111111
        k(   30) = (  -0.0962250   0.5000000  -0.1217993), wk =   0.1111111
        k(   31) = (   0.0000000   0.6666667  -0.0000000), wk =   0.0555556
        k(   32) = (   0.0000000   0.6666667   0.0913495), wk =   0.0555556

                       cryst. coord.
        k(    1) = (   0.0000000   0.0000000   0.0000000), wk =   0.0092593
        k(    2) = (   0.0000000   0.0000000   0.1666667), wk =   0.0185185
        k(    3) = (   0.0000000   0.0000000   0.3333333), wk =   0.0185185
        k(    4) = (   0.0000000   0.0000000  -0.5000000), wk =   0.0092593
        k(    5) = (  -0.0000000   0.1666667  -0.0000000), wk =   0.0555556
        k(    6) = (  -0.0000000   0.1666667   0.1666667), wk =   0.0555556
        k(    7) = (  -0.0000000   0.1666667   0.3333333), wk =   0.0555556
        k(    8) = (  -0.0000000   0.1666667  -0.5000000), wk =   0.0555556
        k(    9) = (  -0.0000000   0.1666667  -0.3333333), wk =   0.0555556
        k(   10) = (  -0.0000000   0.1666667  -0.1666667), wk =   0.0555556
        k(   11) = (  -0.0000000   0.3333333  -0.0000000), wk =   0.0555556
        k(   12) = (  -0.0000000   0.3333333   0.1666667), wk =   0.0555556
        k(   13) = (  -0.0000000   0.3333333   0.3333333), wk =   0.0555556
        k(   14) = (  -0.0000000   0.3333333  -0.5000000), wk =   0.0555556
        k(   15) = (  -0.0000000   0.3333333  -0.3333333), wk =   0.0555556
        k(   16) = (  -0.0000000   0.3333333  -0.1666667), wk =   0.0555556
        k(   17) = (   0.0000000  -0.5000000  -0.0000000), wk =   0.0277778
        k(   18) = (   0.0000000  -0.5000000   0.1666667), wk =   0.0555556
        k(   19) = (   0.0000000  -0.5000000   0.3333333), wk =   0.0555556
        k(   20) = (   0.0000000  -0.5000000  -0.5000000), wk =   0.0277778
        k(   21) = (   0.1666667   0.1666667  -0.0000000), wk =   0.0555556
        k(   22) = (   0.1666667   0.1666667   0.1666667), wk =   0.1111111
        k(   23) = (   0.1666667   0.1666667   0.3333333), wk =   0.1111111
        k(   24) = (   0.1666667   0.1666667  -0.5000000), wk =   0.0555556
        k(   25) = (   0.1666667   0.3333333  -0.0000000), wk =   0.1111111
        k(   26) = (   0.1666667   0.3333333   0.1666667), wk =   0.1111111
        k(   27) = (   0.1666667   0.3333333   0.3333333), wk =   0.1111111
        k(   28) = (   0.1666667   0.3333333  -0.5000000), wk =   0.1111111
        k(   29) = (   0.1666667   0.3333333  -0.3333333), wk =   0.1111111
        k(   30) = (   0.1666667   0.3333333  -0.1666667), wk =   0.1111111
        k(   31) = (   0.3333333   0.3333333  -0.0000000), wk =   0.0555556
        k(   32) = (   0.3333333   0.3333333   0.1666667), wk =   0.0555556

     Dense  grid:   512903 G-vectors     FFT dimensions: (  90,  90, 180)

     Dynamical RAM for                 wfc:       4.65 MB

     Dynamical RAM for     wfc (w. buffer):      13.94 MB

     Dynamical RAM for           str. fact:       0.65 MB

     Dynamical RAM for           local pot:       0.00 MB

     Dynamical RAM for          nlocal pot:      16.14 MB

     Dynamical RAM for                qrad:       6.42 MB

     Dynamical RAM for          rho,v,vnew:       2.46 MB

     Dynamical RAM for               rhoin:       0.82 MB

     Dynamical RAM for            rho*nmix:       5.22 MB

     Dynamical RAM for           G-vectors:       1.39 MB

     Dynamical RAM for          h,s,v(r/c):       2.38 MB

     Dynamical RAM for          <psi|beta>:       0.69 MB

     Dynamical RAM for                 psi:       9.29 MB

     Dynamical RAM for                hpsi:       9.29 MB

     Dynamical RAM for      wfcinit/wfcrot:       9.59 MB

     Estimated static dynamical RAM per process >      45.27 MB

     Estimated max dynamical RAM per process >      72.14 MB

     Estimated total dynamical RAM >      25.22 GB

     Initial potential from superposition of free atoms

     starting charge     189.1494, renormalised to     190.0000
     Starting wfcs are random

     total cpu time spent up to now is        2.3 secs

     per-process dynamical memory:   177.2 Mb

     Self-consistent Calculation

     iteration #  1     ecut=   100.00 Ry     beta= 0.70
     Davidson diagonalization with overlap

---- Real-time Memory Report at c_bands before calling an iterative solver
           251 MiB given to the printing process from OS
           173 MiB allocation reported by mallinfo(arena+hblkhd)
        329496 MiB available memory on the node where the printing process lives
------------------
     ethr =  1.00E-02,  avg # of iterations = 18.0

     Threshold (ethr) on eigenvalues was too large:
     Diagonalizing with lowered threshold

     Davidson diagonalization with overlap

---- Real-time Memory Report at c_bands before calling an iterative solver
           276 MiB given to the printing process from OS
           173 MiB allocation reported by mallinfo(arena+hblkhd)
        328910 MiB available memory on the node where the printing process lives
------------------
     c_bands:  2 eigenvalues not converged
     ethr =  4.01E-04,  avg # of iterations = 19.0

     total cpu time spent up to now is       14.2 secs

     WARNING: integrated charge=   190.00348359, expected=   190.00000000

     total energy              =   -1118.00626770 Ry
     estimated scf accuracy    <       0.65408213 Ry

     iteration #  2     ecut=   100.00 Ry     beta= 0.70
     Davidson diagonalization with overlap

---- Real-time Memory Report at c_bands before calling an iterative solver
           277 MiB given to the printing process from OS
           182 MiB allocation reported by mallinfo(arena+hblkhd)
        327777 MiB available memory on the node where the printing process lives
------------------
     ethr =  3.44E-04,  avg # of iterations =  3.9

     total cpu time spent up to now is       16.6 secs

     WARNING: integrated charge=   190.00238435, expected=   190.00000000

     total energy              =   -1118.05387492 Ry
     estimated scf accuracy    <       0.91045937 Ry

     iteration #  3     ecut=   100.00 Ry     beta= 0.70
     Davidson diagonalization with overlap

---- Real-time Memory Report at c_bands before calling an iterative solver
           282 MiB given to the printing process from OS
           182 MiB allocation reported by mallinfo(arena+hblkhd)
        328115 MiB available memory on the node where the printing process lives
------------------
     ethr =  3.44E-04,  avg # of iterations =  4.3

     total cpu time spent up to now is       19.1 secs

     WARNING: integrated charge=   190.00251180, expected=   190.00000000

     total energy              =   -1118.22885317 Ry
     estimated scf accuracy    <       0.25128212 Ry

     iteration #  4     ecut=   100.00 Ry     beta= 0.70
     Davidson diagonalization with overlap

---- Real-time Memory Report at c_bands before calling an iterative solver
           282 MiB given to the printing process from OS
           183 MiB allocation reported by mallinfo(arena+hblkhd)
        328100 MiB available memory on the node where the printing process lives
------------------
     c_bands:  3 eigenvalues not converged
     ethr =  1.32E-04,  avg # of iterations =  4.4

     total cpu time spent up to now is       21.7 secs

     WARNING: integrated charge=   190.00173519, expected=   190.00000000

     total energy              =   -1118.27743651 Ry
     estimated scf accuracy    <       0.04503128 Ry

     iteration #  5     ecut=   100.00 Ry     beta= 0.70
     Davidson diagonalization with overlap

---- Real-time Memory Report at c_bands before calling an iterative solver
           285 MiB given to the printing process from OS
           184 MiB allocation reported by mallinfo(arena+hblkhd)
        328082 MiB available memory on the node where the printing process lives
------------------
     c_bands:  1 eigenvalues not converged
     ethr =  2.37E-05,  avg # of iterations =  9.9

     total cpu time spent up to now is       25.3 secs

     WARNING: integrated charge=   190.00425482, expected=   190.00000000

     total energy              =   -1118.28432047 Ry
     estimated scf accuracy    <       0.00864152 Ry

     iteration #  6     ecut=   100.00 Ry     beta= 0.70
     Davidson diagonalization with overlap

---- Real-time Memory Report at c_bands before calling an iterative solver
           285 MiB given to the printing process from OS
           184 MiB allocation reported by mallinfo(arena+hblkhd)
        328092 MiB available memory on the node where the printing process lives
------------------
     ethr =  4.55E-06,  avg # of iterations = 11.4

     total cpu time spent up to now is       28.9 secs

     WARNING: integrated charge=   190.00186394, expected=   190.00000000

     total energy              =   -1118.29164716 Ry
     estimated scf accuracy    <       0.00052785 Ry

     iteration #  7     ecut=   100.00 Ry     beta= 0.70
     Davidson diagonalization with overlap

---- Real-time Memory Report at c_bands before calling an iterative solver
           287 MiB given to the printing process from OS
           185 MiB allocation reported by mallinfo(arena+hblkhd)
        328078 MiB available memory on the node where the printing process lives
------------------
     ethr =  2.78E-07,  avg # of iterations = 19.9

     total cpu time spent up to now is       35.5 secs

     WARNING: integrated charge=   190.00050604, expected=   190.00000000

     total energy              =   -1118.29214717 Ry
     estimated scf accuracy    <       0.00006092 Ry

     iteration #  8     ecut=   100.00 Ry     beta= 0.70
     Davidson diagonalization with overlap

---- Real-time Memory Report at c_bands before calling an iterative solver
           288 MiB given to the printing process from OS
           185 MiB allocation reported by mallinfo(arena+hblkhd)
        327964 MiB available memory on the node where the printing process lives
------------------
     c_bands:  1 eigenvalues not converged
     ethr =  3.21E-08,  avg # of iterations = 15.1

     total cpu time spent up to now is       40.1 secs

     WARNING: integrated charge=   189.99997841, expected=   190.00000000

     total energy              =   -1118.29218954 Ry
     estimated scf accuracy    <       0.00001060 Ry

     iteration #  9     ecut=   100.00 Ry     beta= 0.70
     Davidson diagonalization with overlap

---- Real-time Memory Report at c_bands before calling an iterative solver
           290 MiB given to the printing process from OS
           186 MiB allocation reported by mallinfo(arena+hblkhd)
        328056 MiB available memory on the node where the printing process lives
------------------
     ethr =  5.58E-09,  avg # of iterations = 12.0

     total cpu time spent up to now is       43.8 secs

     WARNING: integrated charge=   189.99989993, expected=   190.00000000

     total energy              =   -1118.29219590 Ry
     estimated scf accuracy    <       0.00000180 Ry

     iteration # 10     ecut=   100.00 Ry     beta= 0.70
     Davidson diagonalization with overlap

---- Real-time Memory Report at c_bands before calling an iterative solver
           290 MiB given to the printing process from OS
           187 MiB allocation reported by mallinfo(arena+hblkhd)
        328033 MiB available memory on the node where the printing process lives
------------------
     c_bands:  1 eigenvalues not converged
     ethr =  9.49E-10,  avg # of iterations = 13.0

     total cpu time spent up to now is       47.5 secs

     WARNING: integrated charge=   189.99997462, expected=   190.00000000

     total energy              =   -1118.29219673 Ry
     estimated scf accuracy    <       0.00000010 Ry

     iteration # 11     ecut=   100.00 Ry     beta= 0.70
     Davidson diagonalization with overlap

---- Real-time Memory Report at c_bands before calling an iterative solver
           292 MiB given to the printing process from OS
           187 MiB allocation reported by mallinfo(arena+hblkhd)
        328065 MiB available memory on the node where the printing process lives
------------------
     c_bands:  1 eigenvalues not converged
     ethr =  5.04E-11,  avg # of iterations = 18.3

     total cpu time spent up to now is       52.6 secs

     total energy              =   -1118.29219683 Ry
     estimated scf accuracy    <       0.00000002 Ry

     iteration # 12     ecut=   100.00 Ry     beta= 0.70
     Davidson diagonalization with overlap

---- Real-time Memory Report at c_bands before calling an iterative solver
           293 MiB given to the printing process from OS
           187 MiB allocation reported by mallinfo(arena+hblkhd)
        328062 MiB available memory on the node where the printing process lives
------------------
     ethr =  1.23E-11,  avg # of iterations = 16.5

     total cpu time spent up to now is       56.6 secs

     total energy              =   -1118.29219684 Ry
     estimated scf accuracy    <          2.1E-09 Ry

     iteration # 13     ecut=   100.00 Ry     beta= 0.70
     Davidson diagonalization with overlap

---- Real-time Memory Report at c_bands before calling an iterative solver
           293 MiB given to the printing process from OS
           187 MiB allocation reported by mallinfo(arena+hblkhd)
        328034 MiB available memory on the node where the printing process lives
------------------
     c_bands:  3 eigenvalues not converged
     ethr =  1.13E-12,  avg # of iterations = 16.8

     total cpu time spent up to now is       60.9 secs

     total energy              =   -1118.29219684 Ry
     estimated scf accuracy    <          5.0E-10 Ry

     iteration # 14     ecut=   100.00 Ry     beta= 0.70
     Davidson diagonalization with overlap

---- Real-time Memory Report at c_bands before calling an iterative solver
           293 MiB given to the printing process from OS
           187 MiB allocation reported by mallinfo(arena+hblkhd)
        328058 MiB available memory on the node where the printing process lives
------------------
     c_bands:  1 eigenvalues not converged
     ethr =  2.62E-13,  avg # of iterations = 15.5

     total cpu time spent up to now is       65.3 secs

     total energy              =   -1118.29219684 Ry
     estimated scf accuracy    <          2.5E-10 Ry

     iteration # 15     ecut=   100.00 Ry     beta= 0.70
     Davidson diagonalization with overlap

---- Real-time Memory Report at c_bands before calling an iterative solver
           293 MiB given to the printing process from OS
           187 MiB allocation reported by mallinfo(arena+hblkhd)
        328064 MiB available memory on the node where the printing process lives
------------------
     ethr =  1.33E-13,  avg # of iterations = 12.2

     total cpu time spent up to now is       68.9 secs

     total energy              =   -1118.29219684 Ry
     estimated scf accuracy    <          9.5E-11 Ry

     iteration # 16     ecut=   100.00 Ry     beta= 0.70
     Davidson diagonalization with overlap

---- Real-time Memory Report at c_bands before calling an iterative solver
           293 MiB given to the printing process from OS
           187 MiB allocation reported by mallinfo(arena+hblkhd)
        328049 MiB available memory on the node where the printing process lives
------------------
     ethr =  1.00E-13,  avg # of iterations =  7.4

     total cpu time spent up to now is       71.7 secs

     total energy              =   -1118.29219684 Ry
     estimated scf accuracy    <          6.5E-12 Ry

     iteration # 17     ecut=   100.00 Ry     beta= 0.70
     Davidson diagonalization with overlap

---- Real-time Memory Report at c_bands before calling an iterative solver
           293 MiB given to the printing process from OS
           187 MiB allocation reported by mallinfo(arena+hblkhd)
        328036 MiB available memory on the node where the printing process lives
------------------
     ethr =  1.00E-13,  avg # of iterations =  6.3

     total cpu time spent up to now is       74.3 secs

     End of self-consistent calculation

          k = 0.0000 0.0000 0.0000 ( 64043 PWs)   bands (ev):

   -47.9796 -47.9796 -47.9023 -47.9023 -47.9023 -47.9023 -24.3464 -24.3464
   -24.1753 -24.1753 -24.1753 -24.1753 -24.1692 -24.1691 -24.0707 -24.0707
   -24.0707 -24.0707 -23.8584 -23.8584 -23.7088 -23.7088 -23.7088 -23.7088
    -9.2059  -9.0965  -8.7651  -8.6050  -8.1606  -8.1606  -8.1157  -8.0948
    -8.0670  -8.0670  -7.8861  -7.8431  -7.5339  -7.5339  -7.4939  -7.4939
     1.2134   1.2134   1.3275   1.3275   1.3645   1.6321   1.7191   1.8746
     2.0162   2.0162   2.2182   2.2404   2.2404   2.4682   2.5506   2.6724
     2.7941   2.7941   3.1132   3.1132   3.4990   3.6364   3.7247   3.7247
     3.8480   3.8480   3.9670   4.0551   4.0551   4.0986   4.0986   4.1248
     4.1737   4.2441   4.2441   4.3692   4.5441   4.5710   4.5710   5.1390
     5.1390   5.2182   5.2182   5.2318   5.8346   5.8346   5.8613   5.8613
     6.1751   6.3310   6.7891   6.7891   6.8621   6.8621   7.7290   8.1070
     8.7502   8.7502   8.7622   8.7622   9.3260   9.5611   9.5648   9.5648
     9.6875   9.6875   9.9435  10.0306  10.0306  10.0448  10.0448  10.0612
    10.2047  10.2047

     occupation numbers 
     1.0000   1.0000   1.0000   1.0000   1.0000   1.0000   1.0000   1.0000
     1.0000   1.0000   1.0000   1.0000   1.0000   1.0000   1.0000   1.0000
     1.0000   1.0000   1.0000   1.0000   1.0000   1.0000   1.0000   1.0000
     1.0000   1.0000   1.0000   1.0000   1.0000   1.0000   1.0000   1.0000
     1.0000   1.0000   1.0000   1.0000   1.0000   1.0000   1.0000   1.0000
     1.0000   1.0000   1.0000   1.0000   1.0000   1.0000   1.0000   1.0000
     1.0000   1.0000   1.0000   1.0000   1.0000   1.0000   1.0000   1.0000
     1.0000   1.0000   1.0000   1.0000   1.0000   1.0000   1.0000   1.0000
     1.0000   1.0000   1.0000   1.0000   1.0000   1.0000   1.0000   1.0000
     1.0000   1.0000   1.0000   1.0000   1.0000   1.0000   1.0000   1.0000
     1.0000   1.0000   1.0000   1.0000   1.0000   1.0000   1.0000   1.0000
     1.0000   1.0000   1.0000   1.0000   1.0000   1.0000   1.0001   0.0000
     0.0000   0.0000   0.0000   0.0000   0.0000   0.0000   0.0000   0.0000
     0.0000   0.0000   0.0000   0.0000   0.0000   0.0000   0.0000   0.0000
     0.0000   0.0000

          k = 0.0000 0.0000 0.0913 ( 64071 PWs)   bands (ev):

   -47.9796 -47.9796 -47.9023 -47.9023 -47.9023 -47.9023 -24.3464 -24.3464
   -24.1753 -24.1753 -24.1753 -24.1753 -24.1692 -24.1691 -24.0707 -24.0707
   -24.0707 -24.0707 -23.8584 -23.8584 -23.7088 -23.7088 -23.7088 -23.7088
    -9.2019  -9.1015  -8.7689  -8.5992  -8.1605  -8.1605  -8.1156  -8.0955
    -8.0671  -8.0671  -7.8834  -7.8462  -7.5336  -7.5336  -7.4941  -7.4941
     1.2166   1.2166   1.3193   1.3193   1.3890   1.6153   1.7315   1.8889
     2.0294   2.0294   2.1508   2.2430   2.2430   2.3744   2.6366   2.7164
     2.7839   2.7839   3.1094   3.1094   3.5041   3.6287   3.7053   3.7053
     3.8469   3.8469   3.9119   4.0371   4.0371   4.1266   4.1291   4.1291
     4.2725   4.2725   4.2784   4.3808   4.5348   4.5550   4.5550   5.1445
     5.1445   5.1597   5.2148   5.2148   5.8358   5.8358   5.8602   5.8602
     6.1867   6.3215   6.7790   6.7790   6.8682   6.8682   7.7605   8.0876
     8.7508   8.7508   8.7617   8.7617   9.3256   9.5673   9.5719   9.5719
     9.6782   9.6782   9.9435  10.0288  10.0288  10.0458  10.0458  10.0602
    10.1660  10.1660

     occupation numbers 
     1.0000   1.0000   1.0000   1.0000   1.0000   1.0000   1.0000   1.0000
     1.0000   1.0000   1.0000   1.0000   1.0000   1.0000   1.0000   1.0000
     1.0000   1.0000   1.0000   1.0000   1.0000   1.0000   1.0000   1.0000
     1.0000   1.0000   1.0000   1.0000   1.0000   1.0000   1.0000   1.0000
     1.0000   1.0000   1.0000   1.0000   1.0000   1.0000   1.0000   1.0000
     1.0000   1.0000   1.0000   1.0000   1.0000   1.0000   1.0000   1.0000
     1.0000   1.0000   1.0000   1.0000   1.0000   1.0000   1.0000   1.0000
     1.0000   1.0000   1.0000   1.0000   1.0000   1.0000   1.0000   1.0000
     1.0000   1.0000   1.0000   1.0000   1.0000   1.0000   1.0000   1.0000
     1.0000   1.0000   1.0000   1.0000   1.0000   1.0000   1.0000   1.0000
     1.0000   1.0000   1.0000   1.0000   1.0000   1.0000   1.0000   1.0000
     1.0000   1.0000   1.0000   1.0000   1.0000   1.0000   1.0029   0.0000
     0.0000   0.0000   0.0000   0.0000   0.0000   0.0000   0.0000   0.0000
     0.0000   0.0000   0.0000   0.0000   0.0000   0.0000   0.0000   0.0000
     0.0000   0.0000

          k = 0.0000 0.0000 0.1827 ( 64191 PWs)   bands (ev):

   -47.9797 -47.9796 -47.9023 -47.9023 -47.9023 -47.9023 -24.3464 -24.3464
   -24.1753 -24.1753 -24.1753 -24.1753 -24.1692 -24.1691 -24.0707 -24.0707
   -24.0707 -24.0707 -23.8584 -23.8584 -23.7088 -23.7088 -23.7088 -23.7088
    -9.1923  -9.1130  -8.7756  -8.5884  -8.1603  -8.1603  -8.1155  -8.0972
    -8.0673  -8.0673  -7.8761  -7.8544  -7.5330  -7.5330  -7.4947  -7.4947
     1.2247   1.2247   1.3017   1.3017   1.4517   1.5859   1.7443   1.9259
     2.0195   2.0560   2.0560   2.2492   2.2492   2.2861   2.7003   2.7620
     2.7620   2.7943   3.1016   3.1016   3.5165   3.6114   3.6700   3.6700
     3.8499   3.8499   3.8512   4.0205   4.0205   4.1286   4.1582   4.1582
     4.3476   4.3476   4.4096   4.4861   4.5088   4.5088   4.5107   4.9737
     5.1582   5.1582   5.2054   5.2054   5.8381   5.8381   5.8580   5.8580
     6.2038   6.3062   6.7617   6.7617   6.8773   6.8773   7.8387   8.0328
     8.7522   8.7522   8.7606   8.7606   9.3247   9.5797   9.5921   9.5921
     9.6535   9.6535   9.9436  10.0256  10.0256  10.0472  10.0472  10.0581
    10.1293  10.1293

     occupation numbers 
     1.0000   1.0000   1.0000   1.0000   1.0000   1.0000   1.0000   1.0000
     1.0000   1.0000   1.0000   1.0000   1.0000   1.0000   1.0000   1.0000
     1.0000   1.0000   1.0000   1.0000   1.0000   1.0000   1.0000   1.0000
     1.0000   1.0000   1.0000   1.0000   1.0000   1.0000   1.0000   1.0000
     1.0000   1.0000   1.0000   1.0000   1.0000   1.0000   1.0000   1.0000
     1.0000   1.0000   1.0000   1.0000   1.0000   1.0000   1.0000   1.0000
     1.0000   1.0000   1.0000   1.0000   1.0000   1.0000   1.0000   1.0000
     1.0000   1.0000   1.0000   1.0000   1.0000   1.0000   1.0000   1.0000
     1.0000   1.0000   1.0000   1.0000   1.0000   1.0000   1.0000   1.0000
     1.0000   1.0000   1.0000   1.0000   1.0000   1.0000   1.0000   1.0000
     1.0000   1.0000   1.0000   1.0000   1.0000   1.0000   1.0000   1.0000
     1.0000   1.0000   1.0000   1.0000   1.0000   1.0000   1.0783   0.0000
     0.0000   0.0000   0.0000   0.0000   0.0000   0.0000   0.0000   0.0000
     0.0000   0.0000   0.0000   0.0000   0.0000   0.0000   0.0000   0.0000
     0.0000   0.0000

          k = 0.0000 0.0000-0.2740 ( 64140 PWs)   bands (ev):

   -47.9796 -47.9796 -47.9023 -47.9023 -47.9023 -47.9023 -24.3464 -24.3464
   -24.1753 -24.1753 -24.1753 -24.1753 -24.1691 -24.1691 -24.0707 -24.0707
   -24.0707 -24.0707 -23.8584 -23.8584 -23.7088 -23.7088 -23.7088 -23.7088
    -9.1862  -9.1199  -8.7786  -8.5833  -8.1603  -8.1603  -8.1154  -8.0981
    -8.0674  -8.0674  -7.8670  -7.8640  -7.5327  -7.5327  -7.4950  -7.4950
     1.2303   1.2303   1.2916   1.2916   1.5021   1.5612   1.7482   1.9372
     1.9650   2.0692   2.0692   2.2473   2.2530   2.2530   2.7256   2.7502
     2.7502   2.8232   3.0976   3.0976   3.5247   3.6008   3.6542   3.6542
     3.8304   3.8527   3.8527   4.0145   4.0145   4.1291   4.1674   4.1674
     4.4220   4.4220   4.4315   4.4492   4.4492   4.4912   4.7261   4.7374
     5.1685   5.1685   5.1973   5.1973   5.8395   5.8395   5.8568   5.8568
     6.2087   6.3012   6.7539   6.7539   6.8809   6.8809   7.9094   7.9733
     8.7531   8.7531   8.7599   8.7599   9.3242   9.5860   9.6200   9.6200
     9.6234   9.6234   9.9437  10.0242  10.0242  10.0477  10.0477  10.0571
    10.1166  10.1166

     occupation numbers 
     1.0000   1.0000   1.0000   1.0000   1.0000   1.0000   1.0000   1.0000
     1.0000   1.0000   1.0000   1.0000   1.0000   1.0000   1.0000   1.0000
     1.0000   1.0000   1.0000   1.0000   1.0000   1.0000   1.0000   1.0000
     1.0000   1.0000   1.0000   1.0000   1.0000   1.0000   1.0000   1.0000
     1.0000   1.0000   1.0000   1.0000   1.0000   1.0000   1.0000   1.0000
     1.0000   1.0000   1.0000   1.0000   1.0000   1.0000   1.0000   1.0000
     1.0000   1.0000   1.0000   1.0000   1.0000   1.0000   1.0000   1.0000
     1.0000   1.0000   1.0000   1.0000   1.0000   1.0000   1.0000   1.0000
     1.0000   1.0000   1.0000   1.0000   1.0000   1.0000   1.0000   1.0000
     1.0000   1.0000   1.0000   1.0000   1.0000   1.0000   1.0000   1.0000
     1.0000   1.0000   1.0000   1.0000   1.0000   1.0000   1.0000   1.0000
     1.0000   1.0000   1.0000   1.0000   1.0000   1.0000   0.3127   0.0058
     0.0000   0.0000   0.0000   0.0000   0.0000   0.0000   0.0000   0.0000
     0.0000   0.0000   0.0000   0.0000   0.0000   0.0000   0.0000   0.0000
     0.0000   0.0000

          k =-0.0962 0.1667-0.0304 ( 64124 PWs)   bands (ev):

   -47.9795 -47.9795 -47.9025 -47.9025 -47.9023 -47.9023 -24.3434 -24.3434
   -24.1747 -24.1747 -24.1730 -24.1730 -24.1683 -24.1682 -24.0716 -24.0716
   -24.0708 -24.0708 -23.8600 -23.8600 -23.7129 -23.7129 -23.7096 -23.7096
    -9.1802  -9.0848  -8.7394  -8.5776  -8.2082  -8.1618  -8.1284  -8.1131
    -8.0817  -8.0657  -7.8761  -7.8290  -7.5602  -7.5355  -7.5193  -7.4939
     1.3088   1.3121   1.3407   1.4190   1.5972   1.7109   1.7733   1.8686
     2.0251   2.1231   2.2197   2.2696   2.3607   2.4837   2.5910   2.7407
     2.7593   2.7876   3.0962   3.0973   3.4884   3.5439   3.6381   3.6611
     3.7248   3.8273   3.8515   3.8624   3.9623   3.9973   4.0937   4.1980
     4.2434   4.2604   4.3183   4.3846   4.4477   4.4687   4.5824   4.9383
     4.9954   5.1202   5.2231   5.2628   5.5438   5.6063   5.7614   5.8248
     6.1427   6.2520   6.7832   6.7974   6.8420   6.8941   7.7257   8.1215
     8.7642   8.7689   8.7735   8.7880   9.3060   9.4724   9.5387   9.5438
     9.6522   9.6571   9.7768   9.8594   9.9048   9.9777  10.0055  10.0338
    10.2692  10.3122

     occupation numbers 
     1.0000   1.0000   1.0000   1.0000   1.0000   1.0000   1.0000   1.0000
     1.0000   1.0000   1.0000   1.0000   1.0000   1.0000   1.0000   1.0000
     1.0000   1.0000   1.0000   1.0000   1.0000   1.0000   1.0000   1.0000
     1.0000   1.0000   1.0000   1.0000   1.0000   1.0000   1.0000   1.0000
     1.0000   1.0000   1.0000   1.0000   1.0000   1.0000   1.0000   1.0000
     1.0000   1.0000   1.0000   1.0000   1.0000   1.0000   1.0000   1.0000
     1.0000   1.0000   1.0000   1.0000   1.0000   1.0000   1.0000   1.0000
     1.0000   1.0000   1.0000   1.0000   1.0000   1.0000   1.0000   1.0000
     1.0000   1.0000   1.0000   1.0000   1.0000   1.0000   1.0000   1.0000
     1.0000   1.0000   1.0000   1.0000   1.0000   1.0000   1.0000   1.0000
     1.0000   1.0000   1.0000   1.0000   1.0000   1.0000   1.0000   1.0000
     1.0000   1.0000   1.0000   1.0000   1.0000   1.0000   1.0001   0.0000
     0.0000   0.0000   0.0000   0.0000   0.0000   0.0000   0.0000   0.0000
     0.0000   0.0000   0.0000   0.0000   0.0000   0.0000   0.0000   0.0000
     0.0000   0.0000

          k =-0.0962 0.1667 0.0609 ( 64106 PWs)   bands (ev):

   -47.9795 -47.9795 -47.9025 -47.9025 -47.9023 -47.9023 -24.3434 -24.3434
   -24.1747 -24.1747 -24.1730 -24.1730 -24.1683 -24.1682 -24.0716 -24.0716
   -24.0708 -24.0708 -23.8600 -23.8600 -23.7129 -23.7129 -23.7096 -23.7096
    -9.1791  -9.0861  -8.7407  -8.5759  -8.2082  -8.1617  -8.1289  -8.1128
    -8.0815  -8.0659  -7.8751  -7.8302  -7.5608  -7.5350  -7.5188  -7.4944
     1.3129   1.3228   1.3312   1.4106   1.6001   1.7202   1.7766   1.8672
     2.0143   2.1209   2.2040   2.3076   2.3240   2.4772   2.6020   2.7392
     2.7459   2.8300   3.0903   3.0920   3.4964   3.5412   3.6425   3.6655
     3.7074   3.8278   3.8444   3.8516   3.9280   4.0192   4.0773   4.2094
     4.2652   4.2860   4.3272   4.3678   4.4536   4.4708   4.5792   4.9412
     5.0165   5.1128   5.2219   5.2285   5.5445   5.6104   5.7573   5.8309
     6.1443   6.2506   6.7697   6.8067   6.8531   6.8849   7.7355   8.1160
     8.7659   8.7675   8.7730   8.7867   9.2995   9.4929   9.5319   9.5541
     9.6145   9.6621   9.7822   9.8649   9.9082   9.9814   9.9934  10.0267
    10.2465  10.3513

     occupation numbers 
     1.0000   1.0000   1.0000   1.0000   1.0000   1.0000   1.0000   1.0000
     1.0000   1.0000   1.0000   1.0000   1.0000   1.0000   1.0000   1.0000
     1.0000   1.0000   1.0000   1.0000   1.0000   1.0000   1.0000   1.0000
     1.0000   1.0000   1.0000   1.0000   1.0000   1.0000   1.0000   1.0000
     1.0000   1.0000   1.0000   1.0000   1.0000   1.0000   1.0000   1.0000
     1.0000   1.0000   1.0000   1.0000   1.0000   1.0000   1.0000   1.0000
     1.0000   1.0000   1.0000   1.0000   1.0000   1.0000   1.0000   1.0000
     1.0000   1.0000   1.0000   1.0000   1.0000   1.0000   1.0000   1.0000
     1.0000   1.0000   1.0000   1.0000   1.0000   1.0000   1.0000   1.0000
     1.0000   1.0000   1.0000   1.0000   1.0000   1.0000   1.0000   1.0000
     1.0000   1.0000   1.0000   1.0000   1.0000   1.0000   1.0000   1.0000
     1.0000   1.0000   1.0000   1.0000   1.0000   1.0000   1.0003   0.0000
     0.0000   0.0000   0.0000   0.0000   0.0000   0.0000   0.0000   0.0000
     0.0000   0.0000   0.0000   0.0000   0.0000   0.0000   0.0000   0.0000
     0.0000   0.0000

          k =-0.0962 0.1667 0.1522 ( 64128 PWs)   bands (ev):

   -47.9795 -47.9795 -47.9025 -47.9025 -47.9023 -47.9023 -24.3434 -24.3434
   -24.1747 -24.1747 -24.1730 -24.1730 -24.1682 -24.1682 -24.0716 -24.0716
   -24.0708 -24.0708 -23.8600 -23.8600 -23.7129 -23.7129 -23.7096 -23.7096
    -9.1722  -9.0937  -8.7479  -8.5661  -8.2081  -8.1616  -8.1290  -8.1136
    -8.0819  -8.0661  -7.8690  -7.8371  -7.5606  -7.5345  -7.5189  -7.4948
     1.3203   1.3224   1.3548   1.3913   1.6089   1.7024   1.8079   1.8703
     2.0387   2.0803   2.1966   2.2732   2.3102   2.3909   2.6889   2.7253
     2.7751   2.8786   3.0763   3.0857   3.4937   3.5132   3.6212   3.6811
     3.7055   3.7889   3.8467   3.8516   3.9206   4.0348   4.0790   4.2133
     4.2641   4.3202   4.3539   4.4269   4.4753   4.5147   4.5503   4.9147
     5.0306   5.1099   5.1099   5.2294   5.5611   5.6045   5.7626   5.8268
     6.1536   6.2405   6.7553   6.8008   6.8612   6.8860   7.7950   8.0740
     8.7647   8.7661   8.7751   8.7844   9.3029   9.5061   9.5366   9.5493
     9.6089   9.6518   9.7796   9.8701   9.9156   9.9728   9.9786  10.0265
    10.2321  10.3808

     occupation numbers 
     1.0000   1.0000   1.0000   1.0000   1.0000   1.0000   1.0000   1.0000
     1.0000   1.0000   1.0000   1.0000   1.0000   1.0000   1.0000   1.0000
     1.0000   1.0000   1.0000   1.0000   1.0000   1.0000   1.0000   1.0000
     1.0000   1.0000   1.0000   1.0000   1.0000   1.0000   1.0000   1.0000
     1.0000   1.0000   1.0000   1.0000   1.0000   1.0000   1.0000   1.0000
     1.0000   1.0000   1.0000   1.0000   1.0000   1.0000   1.0000   1.0000
     1.0000   1.0000   1.0000   1.0000   1.0000   1.0000   1.0000   1.0000
     1.0000   1.0000   1.0000   1.0000   1.0000   1.0000   1.0000   1.0000
     1.0000   1.0000   1.0000   1.0000   1.0000   1.0000   1.0000   1.0000
     1.0000   1.0000   1.0000   1.0000   1.0000   1.0000   1.0000   1.0000
     1.0000   1.0000   1.0000   1.0000   1.0000   1.0000   1.0000   1.0000
     1.0000   1.0000   1.0000   1.0000   1.0000   1.0000   1.0289   0.0000
     0.0000   0.0000   0.0000   0.0000   0.0000   0.0000   0.0000   0.0000
     0.0000   0.0000   0.0000   0.0000   0.0000   0.0000   0.0000   0.0000
     0.0000   0.0000

          k =-0.0962 0.1667-0.3045 ( 64138 PWs)   bands (ev):

   -47.9795 -47.9795 -47.9025 -47.9025 -47.9023 -47.9023 -24.3434 -24.3434
   -24.1747 -24.1747 -24.1730 -24.1730 -24.1682 -24.1682 -24.0716 -24.0716
   -24.0708 -24.0708 -23.8600 -23.8600 -23.7129 -23.7129 -23.7096 -23.7096
    -9.1655  -9.1011  -8.7533  -8.5585  -8.2080  -8.1617  -8.1284  -8.1149
    -8.0825  -8.0660  -7.8606  -7.8461  -7.5598  -7.5347  -7.5196  -7.4946
     1.3176   1.3285   1.3775   1.3798   1.6275   1.6765   1.8298   1.8679
     2.0396   2.0824   2.1754   2.2630   2.2732   2.3705   2.7228   2.7347
     2.7685   2.9134   3.0691   3.0833   3.4694   3.5241   3.5925   3.6792
     3.7338   3.7568   3.8470   3.8473   3.9269   4.0452   4.0528   4.2547
     4.3029   4.3439   4.3641   4.4031   4.4890   4.5090   4.6637   4.8163
     4.9838   5.0890   5.1147   5.2248   5.5812   5.5895   5.7753   5.8134
     6.1583   6.2344   6.7517   6.7868   6.8610   6.8948   7.8638   8.0181
     8.7639   8.7644   8.7770   8.7838   9.3122   9.4899   9.5398   9.5580
     9.6305   9.6390   9.7735   9.8689   9.9197   9.9638   9.9734  10.0323
    10.2288  10.3744

     occupation numbers 
     1.0000   1.0000   1.0000   1.0000   1.0000   1.0000   1.0000   1.0000
     1.0000   1.0000   1.0000   1.0000   1.0000   1.0000   1.0000   1.0000
     1.0000   1.0000   1.0000   1.0000   1.0000   1.0000   1.0000   1.0000
     1.0000   1.0000   1.0000   1.0000   1.0000   1.0000   1.0000   1.0000
     1.0000   1.0000   1.0000   1.0000   1.0000   1.0000   1.0000   1.0000
     1.0000   1.0000   1.0000   1.0000   1.0000   1.0000   1.0000   1.0000
     1.0000   1.0000   1.0000   1.0000   1.0000   1.0000   1.0000   1.0000
     1.0000   1.0000   1.0000   1.0000   1.0000   1.0000   1.0000   1.0000
     1.0000   1.0000   1.0000   1.0000   1.0000   1.0000   1.0000   1.0000
     1.0000   1.0000   1.0000   1.0000   1.0000   1.0000   1.0000   1.0000
     1.0000   1.0000   1.0000   1.0000   1.0000   1.0000   1.0000   1.0000
     1.0000   1.0000   1.0000   1.0000   1.0000   1.0000   0.9359   0.0001
     0.0000   0.0000   0.0000   0.0000   0.0000   0.0000   0.0000   0.0000
     0.0000   0.0000   0.0000   0.0000   0.0000   0.0000   0.0000   0.0000
     0.0000   0.0000

          k =-0.0962 0.1667-0.2131 ( 64145 PWs)   bands (ev):

   -47.9795 -47.9795 -47.9025 -47.9025 -47.9023 -47.9023 -24.3434 -24.3434
   -24.1747 -24.1747 -24.1730 -24.1730 -24.1682 -24.1682 -24.0716 -24.0716
   -24.0708 -24.0708 -23.8600 -23.8600 -23.7129 -23.7129 -23.7096 -23.7096
    -9.1671  -9.0992  -8.7522  -8.5600  -8.2081  -8.1618  -8.1278  -8.1153
    -8.0826  -8.0658  -7.8634  -7.8430  -7.5592  -7.5353  -7.5202  -7.4941
     1.3155   1.3209   1.3777   1.3913   1.6354   1.6564   1.8295   1.8605
     2.0525   2.1174   2.2007   2.2097   2.2546   2.4030   2.7091   2.7439
     2.7556   2.8998   3.0763   3.0872   3.4659   3.5096   3.5985   3.6962
     3.7347   3.7725   3.8442   3.8501   3.9437   4.0427   4.0444   4.2339
     4.3316   4.3429   4.3450   4.3864   4.4659   4.5330   4.6513   4.8159
     4.9521   5.1230   5.1418   5.2186   5.5712   5.5969   5.7914   5.7952
     6.1606   6.2325   6.7619   6.7798   6.8532   6.9016   7.8448   8.0330
     8.7625   8.7649   8.7777   8.7853   9.3194   9.4677   9.5345   9.5867
     9.6075   9.6671   9.7690   9.8636   9.9123   9.9712   9.9787  10.0378
    10.2394  10.3499

     occupation numbers 
     1.0000   1.0000   1.0000   1.0000   1.0000   1.0000   1.0000   1.0000
     1.0000   1.0000   1.0000   1.0000   1.0000   1.0000   1.0000   1.0000
     1.0000   1.0000   1.0000   1.0000   1.0000   1.0000   1.0000   1.0000
     1.0000   1.0000   1.0000   1.0000   1.0000   1.0000   1.0000   1.0000
     1.0000   1.0000   1.0000   1.0000   1.0000   1.0000   1.0000   1.0000
     1.0000   1.0000   1.0000   1.0000   1.0000   1.0000   1.0000   1.0000
     1.0000   1.0000   1.0000   1.0000   1.0000   1.0000   1.0000   1.0000
     1.0000   1.0000   1.0000   1.0000   1.0000   1.0000   1.0000   1.0000
     1.0000   1.0000   1.0000   1.0000   1.0000   1.0000   1.0000   1.0000
     1.0000   1.0000   1.0000   1.0000   1.0000   1.0000   1.0000   1.0000
     1.0000   1.0000   1.0000   1.0000   1.0000   1.0000   1.0000   1.0000
     1.0000   1.0000   1.0000   1.0000   1.0000   1.0000   1.0635   0.0000
     0.0000   0.0000   0.0000   0.0000   0.0000   0.0000   0.0000   0.0000
     0.0000   0.0000   0.0000   0.0000   0.0000   0.0000   0.0000   0.0000
     0.0000   0.0000

          k =-0.0962 0.1667-0.1218 ( 64144 PWs)   bands (ev):

   -47.9795 -47.9795 -47.9025 -47.9025 -47.9023 -47.9023 -24.3434 -24.3434
   -24.1747 -24.1747 -24.1730 -24.1730 -24.1682 -24.1682 -24.0716 -24.0716
   -24.0708 -24.0708 -23.8600 -23.8600 -23.7129 -23.7129 -23.7096 -23.7096
    -9.1749  -9.0907  -8.7455  -8.5693  -8.2082  -8.1619  -8.1278  -8.1143
    -8.0822  -8.0657  -7.8717  -7.8340  -7.5594  -7.5357  -7.5201  -7.4938
     1.3117   1.3123   1.3600   1.4101   1.6066   1.6814   1.8018   1.8658
     2.0739   2.1038   2.2162   2.2201   2.3162   2.4213   2.6660   2.7423
     2.7666   2.8291   3.0904   3.0938   3.4919   3.4930   3.6197   3.7060
     3.7171   3.8045   3.8533   3.8584   3.9687   4.0146   4.0823   4.1810
     4.2781   4.2832   4.3288   4.4304   4.4644   4.5006   4.5642   4.9129
     4.9601   5.1256   5.2149   5.2177   5.5562   5.6026   5.7747   5.8107
     6.1540   6.2404   6.7787   6.7848   6.8428   6.9015   7.7712   8.0894
     8.7625   8.7670   8.7765   8.7873   9.3166   9.4610   9.5314   9.5677
     9.6331   9.6742   9.7696   9.8594   9.9059   9.9729   9.9985  10.0388
    10.2635  10.3181

     occupation numbers 
     1.0000   1.0000   1.0000   1.0000   1.0000   1.0000   1.0000   1.0000
     1.0000   1.0000   1.0000   1.0000   1.0000   1.0000   1.0000   1.0000
     1.0000   1.0000   1.0000   1.0000   1.0000   1.0000   1.0000   1.0000
     1.0000   1.0000   1.0000   1.0000   1.0000   1.0000   1.0000   1.0000
     1.0000   1.0000   1.0000   1.0000   1.0000   1.0000   1.0000   1.0000
     1.0000   1.0000   1.0000   1.0000   1.0000   1.0000   1.0000   1.0000
     1.0000   1.0000   1.0000   1.0000   1.0000   1.0000   1.0000   1.0000
     1.0000   1.0000   1.0000   1.0000   1.0000   1.0000   1.0000   1.0000
     1.0000   1.0000   1.0000   1.0000   1.0000   1.0000   1.0000   1.0000
     1.0000   1.0000   1.0000   1.0000   1.0000   1.0000   1.0000   1.0000
     1.0000   1.0000   1.0000   1.0000   1.0000   1.0000   1.0000   1.0000
     1.0000   1.0000   1.0000   1.0000   1.0000   1.0000   1.0066   0.0000
     0.0000   0.0000   0.0000   0.0000   0.0000   0.0000   0.0000   0.0000
     0.0000   0.0000   0.0000   0.0000   0.0000   0.0000   0.0000   0.0000
     0.0000   0.0000

          k =-0.1925 0.3333-0.0609 ( 64130 PWs)   bands (ev):

   -47.9793 -47.9793 -47.9027 -47.9027 -47.9023 -47.9023 -24.3375 -24.3375
   -24.1735 -24.1735 -24.1683 -24.1683 -24.1664 -24.1663 -24.0735 -24.0735
   -24.0709 -24.0709 -23.8633 -23.8633 -23.7212 -23.7212 -23.7112 -23.7112
    -9.1248  -9.0649  -8.6574  -8.4945  -8.3421  -8.2139  -8.1643  -8.1322
    -8.0895  -8.0634  -7.8526  -7.7954  -7.6108  -7.5800  -7.5385  -7.4941
     1.4757   1.5392   1.6187   1.6207   1.7665   1.8027   2.0329   2.1018
     2.1041   2.2422   2.3374   2.3657   2.5001   2.6263   2.6789   2.6890
     2.7484   2.8828   2.9551   2.9788   3.3440   3.3522   3.4178   3.5087
     3.6137   3.6279   3.6843   3.7654   3.8706   3.8776   3.9324   4.1142
     4.1539   4.2142   4.2437   4.2997   4.4579   4.5503   4.6039   4.6476
     4.7242   5.0345   5.0611   5.1034   5.1803   5.2159   5.6672   5.7216
     6.0704   6.1159   6.7613   6.7849   6.8375   6.9333   7.6894   8.0735
     8.7876   8.8086   8.8118   8.8643   9.2269   9.3284   9.4187   9.4924
     9.5348   9.5597   9.6753   9.7434   9.9195   9.9418   9.9894  10.0429
    10.2002  10.3100

     occupation numbers 
     1.0000   1.0000   1.0000   1.0000   1.0000   1.0000   1.0000   1.0000
     1.0000   1.0000   1.0000   1.0000   1.0000   1.0000   1.0000   1.0000
     1.0000   1.0000   1.0000   1.0000   1.0000   1.0000   1.0000   1.0000
     1.0000   1.0000   1.0000   1.0000   1.0000   1.0000   1.0000   1.0000
     1.0000   1.0000   1.0000   1.0000   1.0000   1.0000   1.0000   1.0000
     1.0000   1.0000   1.0000   1.0000   1.0000   1.0000   1.0000   1.0000
     1.0000   1.0000   1.0000   1.0000   1.0000   1.0000   1.0000   1.0000
     1.0000   1.0000   1.0000   1.0000   1.0000   1.0000   1.0000   1.0000
     1.0000   1.0000   1.0000   1.0000   1.0000   1.0000   1.0000   1.0000
     1.0000   1.0000   1.0000   1.0000   1.0000   1.0000   1.0000   1.0000
     1.0000   1.0000   1.0000   1.0000   1.0000   1.0000   1.0000   1.0000
     1.0000   1.0000   1.0000   1.0000   1.0000   1.0000   1.0000   0.0000
     0.0000   0.0000   0.0000   0.0000   0.0000   0.0000   0.0000   0.0000
     0.0000   0.0000   0.0000   0.0000   0.0000   0.0000   0.0000   0.0000
     0.0000   0.0000

          k =-0.1925 0.3333 0.0304 ( 64116 PWs)   bands (ev):

   -47.9793 -47.9793 -47.9027 -47.9027 -47.9023 -47.9023 -24.3375 -24.3375
   -24.1735 -24.1735 -24.1683 -24.1683 -24.1664 -24.1663 -24.0735 -24.0735
   -24.0709 -24.0709 -23.8633 -23.8633 -23.7212 -23.7212 -23.7112 -23.7112
    -9.1252  -9.0647  -8.6555  -8.4969  -8.3421  -8.2136  -8.1642  -8.1324
    -8.0886  -8.0635  -7.8533  -7.7953  -7.6111  -7.5794  -7.5381  -7.4944
     1.4754   1.5424   1.6026   1.6195   1.7445   1.8386   2.0475   2.0661
     2.1017   2.2141   2.3854   2.3966   2.5514   2.5919   2.6627   2.6722
     2.7778   2.8490   2.9440   3.0039   3.3312   3.3656   3.4050   3.4926
     3.5987   3.6622   3.6886   3.7699   3.8611   3.8646   3.9151   4.1133
     4.1269   4.2062   4.2367   4.3121   4.4794   4.5522   4.6441   4.6469
     4.7320   5.0114   5.0370   5.0913   5.1835   5.2527   5.6523   5.7416
     6.0633   6.1230   6.7514   6.7946   6.8494   6.9209   7.6847   8.0792
     8.7849   8.8086   8.8220   8.8548   9.2181   9.3377   9.4163   9.4904
     9.5107   9.5433   9.7162   9.7230   9.8888   9.9531   9.9762  10.0668
    10.2559  10.2861

     occupation numbers 
     1.0000   1.0000   1.0000   1.0000   1.0000   1.0000   1.0000   1.0000
     1.0000   1.0000   1.0000   1.0000   1.0000   1.0000   1.0000   1.0000
     1.0000   1.0000   1.0000   1.0000   1.0000   1.0000   1.0000   1.0000
     1.0000   1.0000   1.0000   1.0000   1.0000   1.0000   1.0000   1.0000
     1.0000   1.0000   1.0000   1.0000   1.0000   1.0000   1.0000   1.0000
     1.0000   1.0000   1.0000   1.0000   1.0000   1.0000   1.0000   1.0000
     1.0000   1.0000   1.0000   1.0000   1.0000   1.0000   1.0000   1.0000
     1.0000   1.0000   1.0000   1.0000   1.0000   1.0000   1.0000   1.0000
     1.0000   1.0000   1.0000   1.0000   1.0000   1.0000   1.0000   1.0000
     1.0000   1.0000   1.0000   1.0000   1.0000   1.0000   1.0000   1.0000
     1.0000   1.0000   1.0000   1.0000   1.0000   1.0000   1.0000   1.0000
     1.0000   1.0000   1.0000   1.0000   1.0000   1.0000   1.0000   0.0000
     0.0000   0.0000   0.0000   0.0000   0.0000   0.0000   0.0000   0.0000
     0.0000   0.0000   0.0000   0.0000   0.0000   0.0000   0.0000   0.0000
     0.0000   0.0000

          k =-0.1925 0.3333 0.1218 ( 64077 PWs)   bands (ev):

   -47.9793 -47.9793 -47.9027 -47.9027 -47.9023 -47.9023 -24.3375 -24.3375
   -24.1735 -24.1735 -24.1683 -24.1683 -24.1663 -24.1663 -24.0735 -24.0735
   -24.0709 -24.0709 -23.8633 -23.8633 -23.7212 -23.7212 -23.7112 -23.7112
    -9.1224  -9.0673  -8.6604  -8.4913  -8.3419  -8.2143  -8.1643  -8.1323
    -8.0885  -8.0635  -7.8499  -7.7997  -7.6117  -7.5785  -7.5382  -7.4944
     1.4912   1.5526   1.5930   1.6033   1.7339   1.8530   2.0541   2.0728
     2.0820   2.2130   2.3691   2.4065   2.5374   2.5974   2.6643   2.6675
     2.7659   2.8835   2.9383   3.0672   3.2580   3.3871   3.3924   3.5034
     3.5800   3.6704   3.6936   3.7760   3.8460   3.8927   3.9058   4.0568
     4.1447   4.1786   4.2584   4.3107   4.5117   4.5627   4.6290   4.6406
     4.7996   4.9444   5.0417   5.1051   5.1823   5.2455   5.6485   5.7498
     6.0637   6.1245   6.7437   6.7998   6.8594   6.9095   7.7079   8.0632
     8.7829   8.8071   8.8220   8.8471   9.2226   9.3107   9.4199   9.4965
     9.5200   9.5348   9.6889   9.7577   9.8751   9.9568   9.9704  10.0691
    10.2451  10.3158

     occupation numbers 
     1.0000   1.0000   1.0000   1.0000   1.0000   1.0000   1.0000   1.0000
     1.0000   1.0000   1.0000   1.0000   1.0000   1.0000   1.0000   1.0000
     1.0000   1.0000   1.0000   1.0000   1.0000   1.0000   1.0000   1.0000
     1.0000   1.0000   1.0000   1.0000   1.0000   1.0000   1.0000   1.0000
     1.0000   1.0000   1.0000   1.0000   1.0000   1.0000   1.0000   1.0000
     1.0000   1.0000   1.0000   1.0000   1.0000   1.0000   1.0000   1.0000
     1.0000   1.0000   1.0000   1.0000   1.0000   1.0000   1.0000   1.0000
     1.0000   1.0000   1.0000   1.0000   1.0000   1.0000   1.0000   1.0000
     1.0000   1.0000   1.0000   1.0000   1.0000   1.0000   1.0000   1.0000
     1.0000   1.0000   1.0000   1.0000   1.0000   1.0000   1.0000   1.0000
     1.0000   1.0000   1.0000   1.0000   1.0000   1.0000   1.0000   1.0000
     1.0000   1.0000   1.0000   1.0000   1.0000   1.0000   1.0000   0.0000
     0.0000   0.0000   0.0000   0.0000   0.0000   0.0000   0.0000   0.0000
     0.0000   0.0000   0.0000   0.0000   0.0000   0.0000   0.0000   0.0000
     0.0000   0.0000

          k =-0.1925 0.3333-0.3349 ( 64103 PWs)   bands (ev):

   -47.9793 -47.9793 -47.9027 -47.9027 -47.9023 -47.9023 -24.3375 -24.3375
   -24.1735 -24.1735 -24.1683 -24.1683 -24.1663 -24.1663 -24.0735 -24.0735
   -24.0709 -24.0709 -23.8633 -23.8633 -23.7212 -23.7212 -23.7112 -23.7112
    -9.1187  -9.0706  -8.6668  -8.4840  -8.3416  -8.2153  -8.1644  -8.1320
    -8.0891  -8.0633  -7.8449  -7.8051  -7.6121  -7.5781  -7.5387  -7.4940
     1.5087   1.5672   1.5814   1.5998   1.7281   1.8463   2.0487   2.0674
     2.1145   2.2327   2.3357   2.3547   2.5235   2.5525   2.6745   2.7076
     2.7769   2.9203   2.9449   3.0852   3.2385   3.3848   3.3851   3.5111
     3.5774   3.6536   3.6909   3.7927   3.8354   3.8794   3.9778   4.0203
     4.1412   4.1890   4.2667   4.2884   4.5464   4.5723   4.5957   4.6157
     4.8368   4.9366   5.0440   5.1265   5.1778   5.2031   5.6555   5.7424
     6.0702   6.1201   6.7427   6.7986   6.8532   6.9147   7.7402   8.0372
     8.7837   8.8056   8.8084   8.8524   9.2397   9.2793   9.4263   9.5059
     9.5391   9.5405   9.6607   9.7761   9.8887   9.9440   9.9831  10.0504
    10.2085  10.3425

     occupation numbers 
     1.0000   1.0000   1.0000   1.0000   1.0000   1.0000   1.0000   1.0000
     1.0000   1.0000   1.0000   1.0000   1.0000   1.0000   1.0000   1.0000
     1.0000   1.0000   1.0000   1.0000   1.0000   1.0000   1.0000   1.0000
     1.0000   1.0000   1.0000   1.0000   1.0000   1.0000   1.0000   1.0000
     1.0000   1.0000   1.0000   1.0000   1.0000   1.0000   1.0000   1.0000
     1.0000   1.0000   1.0000   1.0000   1.0000   1.0000   1.0000   1.0000
     1.0000   1.0000   1.0000   1.0000   1.0000   1.0000   1.0000   1.0000
     1.0000   1.0000   1.0000   1.0000   1.0000   1.0000   1.0000   1.0000
     1.0000   1.0000   1.0000   1.0000   1.0000   1.0000   1.0000   1.0000
     1.0000   1.0000   1.0000   1.0000   1.0000   1.0000   1.0000   1.0000
     1.0000   1.0000   1.0000   1.0000   1.0000   1.0000   1.0000   1.0000
     1.0000   1.0000   1.0000   1.0000   1.0000   1.0000   1.0005   0.0000
     0.0000   0.0000   0.0000   0.0000   0.0000   0.0000   0.0000   0.0000
     0.0000   0.0000   0.0000   0.0000   0.0000   0.0000   0.0000   0.0000
     0.0000   0.0000

          k =-0.1925 0.3333-0.2436 ( 64108 PWs)   bands (ev):

   -47.9793 -47.9793 -47.9027 -47.9027 -47.9023 -47.9023 -24.3375 -24.3375
   -24.1735 -24.1735 -24.1683 -24.1683 -24.1663 -24.1663 -24.0735 -24.0735
   -24.0709 -24.0709 -23.8633 -23.8633 -23.7212 -23.7212 -23.7112 -23.7112
    -9.1182  -9.0709  -8.6684  -8.4818  -8.3416  -8.2156  -8.1644  -8.1317
    -8.0900  -8.0632  -7.8440  -7.8055  -7.6119  -7.5786  -7.5390  -7.4937
     1.5039   1.5576   1.5893   1.6331   1.7226   1.8259   2.0267   2.0745
     2.1793   2.2668   2.2676   2.3260   2.4700   2.5816   2.6894   2.7067
     2.7579   2.9439   2.9568   3.0739   3.2416   3.3580   3.4253   3.5148
     3.5995   3.6222   3.6775   3.8087   3.8440   3.8799   3.9657   4.0600
     4.1471   4.2197   4.2536   4.2700   4.5291   4.5660   4.5879   4.6236
     4.7682   5.0361   5.0416   5.1350   5.1530   5.1744   5.6712   5.7217
     6.0828   6.1079   6.7497   6.7920   6.8403   6.9281   7.7463   8.0299
     8.7866   8.8000   8.8055   8.8605   9.2498   9.2759   9.4286   9.4967
     9.5584   9.5667   9.6365   9.7770   9.9242   9.9364   9.9927  10.0225
    10.1753  10.3444

     occupation numbers 
     1.0000   1.0000   1.0000   1.0000   1.0000   1.0000   1.0000   1.0000
     1.0000   1.0000   1.0000   1.0000   1.0000   1.0000   1.0000   1.0000
     1.0000   1.0000   1.0000   1.0000   1.0000   1.0000   1.0000   1.0000
     1.0000   1.0000   1.0000   1.0000   1.0000   1.0000   1.0000   1.0000
     1.0000   1.0000   1.0000   1.0000   1.0000   1.0000   1.0000   1.0000
     1.0000   1.0000   1.0000   1.0000   1.0000   1.0000   1.0000   1.0000
     1.0000   1.0000   1.0000   1.0000   1.0000   1.0000   1.0000   1.0000
     1.0000   1.0000   1.0000   1.0000   1.0000   1.0000   1.0000   1.0000
     1.0000   1.0000   1.0000   1.0000   1.0000   1.0000   1.0000   1.0000
     1.0000   1.0000   1.0000   1.0000   1.0000   1.0000   1.0000   1.0000
     1.0000   1.0000   1.0000   1.0000   1.0000   1.0000   1.0000   1.0000
     1.0000   1.0000   1.0000   1.0000   1.0000   1.0000   1.0008   0.0000
     0.0000   0.0000   0.0000   0.0000   0.0000   0.0000   0.0000   0.0000
     0.0000   0.0000   0.0000   0.0000   0.0000   0.0000   0.0000   0.0000
     0.0000   0.0000

          k =-0.1925 0.3333-0.1522 ( 64112 PWs)   bands (ev):

   -47.9793 -47.9793 -47.9027 -47.9027 -47.9023 -47.9023 -24.3375 -24.3375
   -24.1735 -24.1735 -24.1683 -24.1683 -24.1663 -24.1663 -24.0735 -24.0735
   -24.0709 -24.0709 -23.8633 -23.8633 -23.7212 -23.7212 -23.7112 -23.7112
    -9.1215  -9.0679  -8.6640  -8.4869  -8.3418  -8.2149  -8.1644  -8.1319
    -8.0902  -8.0632  -7.8483  -7.8001  -7.6112  -7.5795  -7.5389  -7.4938
     1.4881   1.5442   1.6081   1.6394   1.7487   1.8003   2.0190   2.0898
     2.1739   2.2592   2.2785   2.3389   2.4550   2.6385   2.6964   2.6967
     2.7073   2.9347   2.9613   3.0263   3.2801   3.3392   3.4719   3.5064
     3.6013   3.6170   3.6754   3.7804   3.8780   3.9052   3.9169   4.0976
     4.1646   4.2079   4.2662   4.2773   4.4738   4.5560   4.5968   4.6388
     4.7252   5.0368   5.0921   5.1267   5.1488   5.1758   5.6866   5.7017
     6.0849   6.1036   6.7608   6.7834   6.8337   6.9361   7.7185   8.0505
     8.7885   8.8023   8.8070   8.8659   9.2401   9.3012   9.4246   9.4896
     9.5682   9.5731   9.6357   9.7645   9.9358   9.9449   9.9954  10.0141
    10.1661  10.3310

     occupation numbers 
     1.0000   1.0000   1.0000   1.0000   1.0000   1.0000   1.0000   1.0000
     1.0000   1.0000   1.0000   1.0000   1.0000   1.0000   1.0000   1.0000
     1.0000   1.0000   1.0000   1.0000   1.0000   1.0000   1.0000   1.0000
     1.0000   1.0000   1.0000   1.0000   1.0000   1.0000   1.0000   1.0000
     1.0000   1.0000   1.0000   1.0000   1.0000   1.0000   1.0000   1.0000
     1.0000   1.0000   1.0000   1.0000   1.0000   1.0000   1.0000   1.0000
     1.0000   1.0000   1.0000   1.0000   1.0000   1.0000   1.0000   1.0000
     1.0000   1.0000   1.0000   1.0000   1.0000   1.0000   1.0000   1.0000
     1.0000   1.0000   1.0000   1.0000   1.0000   1.0000   1.0000   1.0000
     1.0000   1.0000   1.0000   1.0000   1.0000   1.0000   1.0000   1.0000
     1.0000   1.0000   1.0000   1.0000   1.0000   1.0000   1.0000   1.0000
     1.0000   1.0000   1.0000   1.0000   1.0000   1.0000   1.0000   0.0000
     0.0000   0.0000   0.0000   0.0000   0.0000   0.0000   0.0000   0.0000
     0.0000   0.0000   0.0000   0.0000   0.0000   0.0000   0.0000   0.0000
     0.0000   0.0000

          k = 0.2887-0.5000 0.0913 ( 64156 PWs)   bands (ev):

   -47.9792 -47.9792 -47.9028 -47.9028 -47.9023 -47.9023 -24.3345 -24.3345
   -24.1728 -24.1728 -24.1660 -24.1659 -24.1654 -24.1653 -24.0745 -24.0745
   -24.0710 -24.0710 -23.8650 -23.8650 -23.7254 -23.7254 -23.7120 -23.7120
    -9.0920  -9.0603  -8.5221  -8.5134  -8.3720  -8.3354  -8.1655  -8.1354
    -8.0923  -8.0623  -7.8373  -7.7725  -7.6295  -7.6256  -7.5399  -7.4943
     1.6279   1.6853   1.6938   1.7185   1.8339   1.9707   2.1037   2.1845
     2.2973   2.3137   2.3242   2.4481   2.6361   2.6943   2.7168   2.7319
     2.7681   2.7997   2.9573   3.0900   3.1752   3.1982   3.2361   3.3973
     3.4146   3.5014   3.7147   3.7391   3.7677   3.8457   3.8889   3.9091
     3.9646   4.0563   4.1971   4.2654   4.5207   4.5940   4.6540   4.6844
     4.7541   4.8375   4.9633   4.9701   5.0231   5.1226   5.6443   5.6605
     6.0294   6.0661   6.7440   6.7496   6.8771   6.9313   7.6573   8.0302
     8.8030   8.8245   8.8579   8.8895   9.1737   9.2608   9.3140   9.4856
     9.5101   9.5429   9.6484   9.6945   9.9427   9.9793   9.9867  10.0352
    10.1384  10.2849

     occupation numbers 
     1.0000   1.0000   1.0000   1.0000   1.0000   1.0000   1.0000   1.0000
     1.0000   1.0000   1.0000   1.0000   1.0000   1.0000   1.0000   1.0000
     1.0000   1.0000   1.0000   1.0000   1.0000   1.0000   1.0000   1.0000
     1.0000   1.0000   1.0000   1.0000   1.0000   1.0000   1.0000   1.0000
     1.0000   1.0000   1.0000   1.0000   1.0000   1.0000   1.0000   1.0000
     1.0000   1.0000   1.0000   1.0000   1.0000   1.0000   1.0000   1.0000
     1.0000   1.0000   1.0000   1.0000   1.0000   1.0000   1.0000   1.0000
     1.0000   1.0000   1.0000   1.0000   1.0000   1.0000   1.0000   1.0000
     1.0000   1.0000   1.0000   1.0000   1.0000   1.0000   1.0000   1.0000
     1.0000   1.0000   1.0000   1.0000   1.0000   1.0000   1.0000   1.0000
     1.0000   1.0000   1.0000   1.0000   1.0000   1.0000   1.0000   1.0000
     1.0000   1.0000   1.0000   1.0000   1.0000   1.0000   1.0000   0.0000
     0.0000   0.0000   0.0000   0.0000   0.0000   0.0000   0.0000   0.0000
     0.0000   0.0000   0.0000   0.0000   0.0000   0.0000   0.0000   0.0000
     0.0000   0.0000

          k = 0.2887-0.5000 0.1827 ( 64109 PWs)   bands (ev):

   -47.9792 -47.9792 -47.9028 -47.9028 -47.9023 -47.9023 -24.3345 -24.3345
   -24.1728 -24.1728 -24.1660 -24.1659 -24.1654 -24.1653 -24.0745 -24.0745
   -24.0710 -24.0710 -23.8650 -23.8650 -23.7254 -23.7254 -23.7120 -23.7120
    -9.0913  -9.0611  -8.5246  -8.5113  -8.3729  -8.3341  -8.1655  -8.1356
    -8.0919  -8.0622  -7.8368  -7.7736  -7.6292  -7.6256  -7.5401  -7.4942
     1.6223   1.6854   1.6952   1.7207   1.8296   1.9658   2.1150   2.1633
     2.2407   2.3454   2.3865   2.4677   2.6448   2.6826   2.7152   2.7209
     2.7855   2.8070   2.9407   3.0301   3.1783   3.1913   3.2679   3.3487
     3.4740   3.5020   3.7045   3.7584   3.7623   3.8582   3.8719   3.9085
     3.9536   4.0699   4.1743   4.2593   4.5313   4.5923   4.6532   4.6811
     4.7326   4.8730   4.9404   4.9749   5.0422   5.1226   5.6246   5.6841
     6.0304   6.0663   6.7414   6.7518   6.8784   6.9293   7.6600   8.0286
     8.8014   8.8240   8.8567   8.8876   9.1713   9.2543   9.3142   9.4745
     9.5179   9.5450   9.6255   9.7170   9.9417   9.9467   9.9793  10.0699
    10.1508  10.2896

     occupation numbers 
     1.0000   1.0000   1.0000   1.0000   1.0000   1.0000   1.0000   1.0000
     1.0000   1.0000   1.0000   1.0000   1.0000   1.0000   1.0000   1.0000
     1.0000   1.0000   1.0000   1.0000   1.0000   1.0000   1.0000   1.0000
     1.0000   1.0000   1.0000   1.0000   1.0000   1.0000   1.0000   1.0000
     1.0000   1.0000   1.0000   1.0000   1.0000   1.0000   1.0000   1.0000
     1.0000   1.0000   1.0000   1.0000   1.0000   1.0000   1.0000   1.0000
     1.0000   1.0000   1.0000   1.0000   1.0000   1.0000   1.0000   1.0000
     1.0000   1.0000   1.0000   1.0000   1.0000   1.0000   1.0000   1.0000
     1.0000   1.0000   1.0000   1.0000   1.0000   1.0000   1.0000   1.0000
     1.0000   1.0000   1.0000   1.0000   1.0000   1.0000   1.0000   1.0000
     1.0000   1.0000   1.0000   1.0000   1.0000   1.0000   1.0000   1.0000
     1.0000   1.0000   1.0000   1.0000   1.0000   1.0000   1.0000   0.0000
     0.0000   0.0000   0.0000   0.0000   0.0000   0.0000   0.0000   0.0000
     0.0000   0.0000   0.0000   0.0000   0.0000   0.0000   0.0000   0.0000
     0.0000   0.0000

          k = 0.2887-0.5000 0.2740 ( 64076 PWs)   bands (ev):

   -47.9792 -47.9792 -47.9028 -47.9028 -47.9023 -47.9023 -24.3345 -24.3345
   -24.1728 -24.1728 -24.1660 -24.1659 -24.1654 -24.1653 -24.0745 -24.0745
   -24.0710 -24.0710 -23.8650 -23.8650 -23.7254 -23.7254 -23.7120 -23.7120
    -9.0896  -9.0627  -8.5278  -8.5089  -8.3744  -8.3318  -8.1656  -8.1359
    -8.0909  -8.0621  -7.8358  -7.7760  -7.6286  -7.6255  -7.5404  -7.4938
     1.6124   1.6855   1.6959   1.7253   1.8233   1.9568   2.1070   2.1691
     2.1920   2.3956   2.4511   2.4951   2.6555   2.6677   2.6965   2.7284
     2.8128   2.8336   2.9080   2.9495   3.1293   3.1852   3.2638   3.3791
     3.5035   3.5222   3.6966   3.7363   3.7949   3.8519   3.8661   3.9240
     3.9438   4.0918   4.1140   4.2472   4.5444   4.5989   4.6530   4.6732
     4.7068   4.8944   4.9389   4.9848   5.0642   5.1224   5.6079   5.7082
     6.0324   6.0669   6.7381   6.7543   6.8815   6.9244   7.6661   8.0250
     8.7982   8.8229   8.8565   8.8810   9.1692   9.2358   9.3147   9.4756
     9.5145   9.5514   9.5961   9.7434   9.9014   9.9397   9.9793  10.1094
    10.1672  10.3016

     occupation numbers 
     1.0000   1.0000   1.0000   1.0000   1.0000   1.0000   1.0000   1.0000
     1.0000   1.0000   1.0000   1.0000   1.0000   1.0000   1.0000   1.0000
     1.0000   1.0000   1.0000   1.0000   1.0000   1.0000   1.0000   1.0000
     1.0000   1.0000   1.0000   1.0000   1.0000   1.0000   1.0000   1.0000
     1.0000   1.0000   1.0000   1.0000   1.0000   1.0000   1.0000   1.0000
     1.0000   1.0000   1.0000   1.0000   1.0000   1.0000   1.0000   1.0000
     1.0000   1.0000   1.0000   1.0000   1.0000   1.0000   1.0000   1.0000
     1.0000   1.0000   1.0000   1.0000   1.0000   1.0000   1.0000   1.0000
     1.0000   1.0000   1.0000   1.0000   1.0000   1.0000   1.0000   1.0000
     1.0000   1.0000   1.0000   1.0000   1.0000   1.0000   1.0000   1.0000
     1.0000   1.0000   1.0000   1.0000   1.0000   1.0000   1.0000   1.0000
     1.0000   1.0000   1.0000   1.0000   1.0000   1.0000   1.0000   0.0000
     0.0000   0.0000   0.0000   0.0000   0.0000   0.0000   0.0000   0.0000
     0.0000   0.0000   0.0000   0.0000   0.0000   0.0000   0.0000   0.0000
     0.0000   0.0000

          k = 0.2887-0.5000-0.1827 ( 64084 PWs)   bands (ev):

   -47.9792 -47.9792 -47.9028 -47.9028 -47.9023 -47.9023 -24.3345 -24.3345
   -24.1728 -24.1728 -24.1660 -24.1659 -24.1654 -24.1653 -24.0745 -24.0745
   -24.0710 -24.0710 -23.8650 -23.8650 -23.7254 -23.7254 -23.7120 -23.7120
    -9.0887  -9.0635  -8.5289  -8.5082  -8.3751  -8.3307  -8.1657  -8.1361
    -8.0904  -8.0620  -7.8352  -7.7771  -7.6282  -7.6256  -7.5406  -7.4937
     1.6078   1.6856   1.6955   1.7277   1.8211   1.9527   2.0955   2.1740
     2.1842   2.4192   2.4811   2.5007   2.6377   2.6791   2.6993   2.7322
     2.8137   2.8655   2.8784   2.9396   3.0663   3.1889   3.2620   3.4007
     3.5045   3.5412   3.6945   3.7234   3.7975   3.8662   3.8786   3.8856
     3.9944   4.0570   4.1010   4.2413   4.5461   4.6091   4.6542   4.6678
     4.6957   4.8805   4.9618   4.9897   5.0712   5.1223   5.6022   5.7176
     6.0333   6.0673   6.7368   6.7552   6.8835   6.9214   7.6694   8.0230
     8.7966   8.8224   8.8587   8.8752   9.1700   9.2236   9.3149   9.4925
     9.4983   9.5578   9.5811   9.7536   9.8837   9.9387   9.9793  10.1264
    10.1716  10.3087

     occupation numbers 
     1.0000   1.0000   1.0000   1.0000   1.0000   1.0000   1.0000   1.0000
     1.0000   1.0000   1.0000   1.0000   1.0000   1.0000   1.0000   1.0000
     1.0000   1.0000   1.0000   1.0000   1.0000   1.0000   1.0000   1.0000
     1.0000   1.0000   1.0000   1.0000   1.0000   1.0000   1.0000   1.0000
     1.0000   1.0000   1.0000   1.0000   1.0000   1.0000   1.0000   1.0000
     1.0000   1.0000   1.0000   1.0000   1.0000   1.0000   1.0000   1.0000
     1.0000   1.0000   1.0000   1.0000   1.0000   1.0000   1.0000   1.0000
     1.0000   1.0000   1.0000   1.0000   1.0000   1.0000   1.0000   1.0000
     1.0000   1.0000   1.0000   1.0000   1.0000   1.0000   1.0000   1.0000
     1.0000   1.0000   1.0000   1.0000   1.0000   1.0000   1.0000   1.0000
     1.0000   1.0000   1.0000   1.0000   1.0000   1.0000   1.0000   1.0000
     1.0000   1.0000   1.0000   1.0000   1.0000   1.0000   1.0000   0.0000
     0.0000   0.0000   0.0000   0.0000   0.0000   0.0000   0.0000   0.0000
     0.0000   0.0000   0.0000   0.0000   0.0000   0.0000   0.0000   0.0000
     0.0000   0.0000

          k = 0.0000 0.3333-0.0000 ( 64101 PWs)   bands (ev):

   -47.9794 -47.9794 -47.9026 -47.9026 -47.9023 -47.9023 -24.3390 -24.3389
   -24.1735 -24.1735 -24.1699 -24.1699 -24.1668 -24.1668 -24.0728 -24.0728
   -24.0711 -24.0711 -23.8624 -23.8624 -23.7186 -23.7186 -23.7113 -23.7113
    -9.1403  -9.0685  -8.6837  -8.5237  -8.2665  -8.2337  -8.1501  -8.1354
    -8.0956  -8.0467  -7.8602  -7.8037  -7.6049  -7.5707  -7.5244  -7.4946
     1.4134   1.4710   1.5361   1.5765   1.7771   1.8206   1.8907   2.0321
     2.0399   2.2205   2.2660   2.4479   2.4781   2.5588   2.5601   2.7377
     2.8115   2.8309   2.9883   3.0481   3.3676   3.4354   3.4613   3.5439
     3.6169   3.6559   3.7484   3.7572   3.8260   3.8635   4.0207   4.1858
     4.2544   4.3018   4.3247   4.3692   4.4320   4.4832   4.5541   4.7325
     4.7566   4.9934   5.0125   5.2150   5.3337   5.3364   5.6246   5.6842
     6.1200   6.1589   6.7650   6.7982   6.8291   6.9286   7.7079   8.1174
     8.7184   8.7430   8.8511   8.8925   9.2917   9.3777   9.4466   9.4841
     9.5340   9.6173   9.6741   9.7945   9.8451   9.8491   9.9929  10.0888
    10.2596  10.3084

     occupation numbers 
     1.0000   1.0000   1.0000   1.0000   1.0000   1.0000   1.0000   1.0000
     1.0000   1.0000   1.0000   1.0000   1.0000   1.0000   1.0000   1.0000
     1.0000   1.0000   1.0000   1.0000   1.0000   1.0000   1.0000   1.0000
     1.0000   1.0000   1.0000   1.0000   1.0000   1.0000   1.0000   1.0000
     1.0000   1.0000   1.0000   1.0000   1.0000   1.0000   1.0000   1.0000
     1.0000   1.0000   1.0000   1.0000   1.0000   1.0000   1.0000   1.0000
     1.0000   1.0000   1.0000   1.0000   1.0000   1.0000   1.0000   1.0000
[...]
     atom    9 type  2   force =     0.04704784   -0.08148925    0.13532186
     atom   10 type  2   force =     0.04704784    0.08148925    0.13532186
     atom   11 type  2   force =    -0.00000000   -0.00000000   -0.15241168
     atom   12 type  2   force =     0.11282893   -0.00000000   -0.15952368
     atom   13 type  2   force =    -0.05641446    0.09771272   -0.15952368
     atom   14 type  2   force =    -0.05641446   -0.09771272   -0.15952368
     atom   15 type  2   force =    -0.11282893    0.00000000    0.15952368
     atom   16 type  2   force =     0.05641446   -0.09771272    0.15952368
     atom   17 type  2   force =     0.05641446    0.09771272    0.15952368
     atom   18 type  2   force =     0.00000000    0.00000000    0.15241168
     atom   19 type  2   force =     0.09409568   -0.00000000   -0.13532186
     atom   20 type  2   force =    -0.04704784    0.08148925   -0.13532186
     atom   21 type  2   force =    -0.04704784   -0.08148925   -0.13532186
     atom   22 type  2   force =    -0.00000000   -0.00000000   -0.24829209
     The ionic contribution  to forces
     atom    1 type  1   force =     9.67771214    0.00000000   -0.15342467
     atom    2 type  1   force =    -4.83885607    8.38114457   -0.15342467
     atom    3 type  1   force =    -4.83885607   -8.38114457   -0.15342467
     atom    4 type  1   force =    -9.67771214    0.00000000    0.15342467
     atom    5 type  1   force =     4.83885607   -8.38114457    0.15342467
     atom    6 type  1   force =     4.83885607    8.38114457    0.15342467
     atom    7 type  2   force =    -0.00000000    0.00000000  -12.98081520
     atom    8 type  2   force =     3.32638915    0.00000000   -7.00235176
     atom    9 type  2   force =    -1.66319458    2.88073751   -7.00235176
     atom   10 type  2   force =    -1.66319458   -2.88073751   -7.00235176
     atom   11 type  2   force =     0.00000000    0.00000000    8.39314364
     atom   12 type  2   force =    -6.20878063    0.00000000    9.11999557
     atom   13 type  2   force =     3.10439031   -5.37696175    9.11999557
     atom   14 type  2   force =     3.10439031    5.37696175    9.11999557
     atom   15 type  2   force =     6.20878063   -0.00000000   -9.11999557
     atom   16 type  2   force =    -3.10439031    5.37696175   -9.11999557
     atom   17 type  2   force =    -3.10439031   -5.37696175   -9.11999557
     atom   18 type  2   force =    -0.00000000    0.00000000   -8.39314364
     atom   19 type  2   force =    -3.32638915   -0.00000000    7.00235176
     atom   20 type  2   force =     1.66319458   -2.88073751    7.00235176
     atom   21 type  2   force =     1.66319458    2.88073751    7.00235176
     atom   22 type  2   force =     0.00000000   -0.00000000   12.98081520
     The local contribution  to forces
     atom    1 type  1   force =    -9.47239911    0.00000000    0.19222113
     atom    2 type  1   force =     4.73619956   -8.20333826    0.19222113
     atom    3 type  1   force =     4.73619956    8.20333826    0.19222113
     atom    4 type  1   force =     9.47239911   -0.00000000   -0.19222113
     atom    5 type  1   force =    -4.73619956    8.20333826   -0.19222113
     atom    6 type  1   force =    -4.73619956   -8.20333826   -0.19222113
     atom    7 type  2   force =    -0.00000000   -0.00000000   12.73300487
     atom    8 type  2   force =    -3.23328773    0.00000000    6.86816295
     atom    9 type  2   force =     1.61664386   -2.80010931    6.86816295
     atom   10 type  2   force =     1.61664386    2.80010931    6.86816295
     atom   11 type  2   force =     0.00000000    0.00000000   -8.24341382
     atom   12 type  2   force =     6.09674749   -0.00000000   -8.96067162
     atom   13 type  2   force =    -3.04837375    5.27993821   -8.96067162
     atom   14 type  2   force =    -3.04837375   -5.27993821   -8.96067162
     atom   15 type  2   force =    -6.09674749    0.00000000    8.96067162
     atom   16 type  2   force =     3.04837375   -5.27993821    8.96067162
     atom   17 type  2   force =     3.04837375    5.27993821    8.96067162
     atom   18 type  2   force =    -0.00000000    0.00000000    8.24341382
     atom   19 type  2   force =     3.23328773   -0.00000000   -6.86816295
     atom   20 type  2   force =    -1.61664386    2.80010931   -6.86816295
     atom   21 type  2   force =    -1.61664386   -2.80010931   -6.86816295
     atom   22 type  2   force =    -0.00000000    0.00000000  -12.73300487
     The core correction contribution to forces
     atom    1 type  1   force =     0.00000000    0.00000000    0.00000000
     atom    2 type  1   force =     0.00000000    0.00000000    0.00000000
     atom    3 type  1   force =     0.00000000    0.00000000    0.00000000
     atom    4 type  1   force =     0.00000000    0.00000000    0.00000000
     atom    5 type  1   force =     0.00000000    0.00000000    0.00000000
     atom    6 type  1   force =     0.00000000    0.00000000    0.00000000
     atom    7 type  2   force =     0.00000000    0.00000000    0.00000000
     atom    8 type  2   force =     0.00000000    0.00000000    0.00000000
     atom    9 type  2   force =     0.00000000    0.00000000    0.00000000
     atom   10 type  2   force =     0.00000000    0.00000000    0.00000000
     atom   11 type  2   force =     0.00000000    0.00000000    0.00000000
     atom   12 type  2   force =     0.00000000    0.00000000    0.00000000
     atom   13 type  2   force =     0.00000000    0.00000000    0.00000000
     atom   14 type  2   force =     0.00000000    0.00000000    0.00000000
     atom   15 type  2   force =     0.00000000    0.00000000    0.00000000
     atom   16 type  2   force =     0.00000000    0.00000000    0.00000000
     atom   17 type  2   force =     0.00000000    0.00000000    0.00000000
     atom   18 type  2   force =     0.00000000    0.00000000    0.00000000
     atom   19 type  2   force =     0.00000000    0.00000000    0.00000000
     atom   20 type  2   force =     0.00000000    0.00000000    0.00000000
     atom   21 type  2   force =     0.00000000    0.00000000    0.00000000
     atom   22 type  2   force =     0.00000000    0.00000000    0.00000000
     The Hubbard contrib.    to forces
     atom    1 type  1   force =     0.00000000    0.00000000    0.00000000
     atom    2 type  1   force =     0.00000000    0.00000000    0.00000000
     atom    3 type  1   force =     0.00000000    0.00000000    0.00000000
     atom    4 type  1   force =     0.00000000    0.00000000    0.00000000
     atom    5 type  1   force =     0.00000000    0.00000000    0.00000000
     atom    6 type  1   force =     0.00000000    0.00000000    0.00000000
     atom    7 type  2   force =     0.00000000    0.00000000    0.00000000
     atom    8 type  2   force =     0.00000000    0.00000000    0.00000000
     atom    9 type  2   force =     0.00000000    0.00000000    0.00000000
     atom   10 type  2   force =     0.00000000    0.00000000    0.00000000
     atom   11 type  2   force =     0.00000000    0.00000000    0.00000000
     atom   12 type  2   force =     0.00000000    0.00000000    0.00000000
     atom   13 type  2   force =     0.00000000    0.00000000    0.00000000
     atom   14 type  2   force =     0.00000000    0.00000000    0.00000000
     atom   15 type  2   force =     0.00000000    0.00000000    0.00000000
     atom   16 type  2   force =     0.00000000    0.00000000    0.00000000
     atom   17 type  2   force =     0.00000000    0.00000000    0.00000000
     atom   18 type  2   force =     0.00000000    0.00000000    0.00000000
     atom   19 type  2   force =     0.00000000    0.00000000    0.00000000
     atom   20 type  2   force =     0.00000000    0.00000000    0.00000000
     atom   21 type  2   force =     0.00000000    0.00000000    0.00000000
     atom   22 type  2   force =     0.00000000    0.00000000    0.00000000
     The SCF correction term to forces
     atom    1 type  1   force =    -0.00000001    0.00000000    0.00000013
     atom    2 type  1   force =     0.00000000   -0.00000001    0.00000013
     atom    3 type  1   force =     0.00000000    0.00000001    0.00000013
     atom    4 type  1   force =     0.00000001    0.00000000   -0.00000013
     atom    5 type  1   force =    -0.00000000    0.00000001   -0.00000013
     atom    6 type  1   force =    -0.00000000   -0.00000001   -0.00000013
     atom    7 type  2   force =     0.00000000   -0.00000000    0.00000003
     atom    8 type  2   force =     0.00000001    0.00000000    0.00000005
     atom    9 type  2   force =    -0.00000000    0.00000001    0.00000005
     atom   10 type  2   force =    -0.00000000   -0.00000001    0.00000005
     atom   11 type  2   force =     0.00000000    0.00000000    0.00000006
     atom   12 type  2   force =     0.00000001    0.00000000    0.00000005
     atom   13 type  2   force =    -0.00000000    0.00000000    0.00000005
     atom   14 type  2   force =    -0.00000000   -0.00000000    0.00000005
     atom   15 type  2   force =    -0.00000001   -0.00000000   -0.00000005
     atom   16 type  2   force =     0.00000000   -0.00000000   -0.00000005
     atom   17 type  2   force =     0.00000000    0.00000000   -0.00000005
     atom   18 type  2   force =    -0.00000000   -0.00000000   -0.00000006
     atom   19 type  2   force =    -0.00000001   -0.00000000   -0.00000005
     atom   20 type  2   force =     0.00000000   -0.00000001   -0.00000005
     atom   21 type  2   force =     0.00000000    0.00000001   -0.00000005
     atom   22 type  2   force =    -0.00000000   -0.00000000   -0.00000003

     DFT-D3 dispersion contribution to forces:
     atom    1 type  1   force =    -0.00150606   -0.00000000   -0.00008892
     atom    2 type  1   force =     0.00075303   -0.00130428   -0.00008892
     atom    3 type  1   force =     0.00075303    0.00130428   -0.00008892
     atom    4 type  1   force =     0.00150606    0.00000000    0.00008892
     atom    5 type  1   force =    -0.00075303    0.00130428    0.00008892
     atom    6 type  1   force =    -0.00075303   -0.00130428    0.00008892
     atom    7 type  2   force =    -0.00000000    0.00000000   -0.00048654
     atom    8 type  2   force =     0.00097609   -0.00000000   -0.00111976
     atom    9 type  2   force =    -0.00048805    0.00084532   -0.00111976
     atom   10 type  2   force =    -0.00048805   -0.00084532   -0.00111976
     atom   11 type  2   force =     0.00000000    0.00000000    0.00270313
     atom   12 type  2   force =    -0.00080825   -0.00000000    0.00021060
     atom   13 type  2   force =     0.00040412   -0.00069996    0.00021060
     atom   14 type  2   force =     0.00040412    0.00069996    0.00021060
     atom   15 type  2   force =     0.00080825    0.00000000   -0.00021060
     atom   16 type  2   force =    -0.00040412    0.00069996   -0.00021060
     atom   17 type  2   force =    -0.00040412   -0.00069996   -0.00021060
     atom   18 type  2   force =    -0.00000000    0.00000000   -0.00270313
     atom   19 type  2   force =    -0.00097609    0.00000000    0.00111976
     atom   20 type  2   force =     0.00048805   -0.00084532    0.00111976
     atom   21 type  2   force =     0.00048805    0.00084532    0.00111976
     atom   22 type  2   force =     0.00000000    0.00000000    0.00048654

     Total force =     0.000081     Total SCF correction =     0.000000

     DFT-D3 dispersion Force =     0.006795


     Computing stress (Cartesian axis) and pressure

          total   stress  (Ry/bohr**3)                   (kbar)     P=       -0.00
  -0.00000006   0.00000000   0.00000000           -0.01        0.00        0.00
   0.00000000  -0.00000006   0.00000000            0.00       -0.01        0.00
   0.00000000   0.00000000   0.00000005            0.00        0.00        0.01

     kinetic stress (kbar)   9007.95      0.00     -0.00
                                0.00   9007.95      0.00
                               -0.00      0.00   8916.15

     local   stress (kbar) -11171.88      0.00     -0.00
                                0.00 -11171.88      0.00
                               -0.00      0.00   3588.14

     nonloc. stress (kbar)   4785.29      0.00     -0.00
                                0.00   4785.29     -0.00
                               -0.00     -0.00   4806.92

     hartree stress (kbar)   6309.02     -0.00      0.00
                               -0.00   6309.02      0.00
                                0.00      0.00   -292.88

     exc-cor stress (kbar)  -1987.43     -0.00     -0.00
                               -0.00  -1987.43      0.00
                               -0.00      0.00  -1990.14

     corecor stress (kbar)      0.00      0.00      0.00
                                0.00      0.00      0.00
                                0.00      0.00      0.00

     ewald   stress (kbar)  -6929.77      0.00      0.00
                                0.00  -6929.77     -0.00
                                0.00     -0.00 -15011.91

     hubbard stress (kbar)      0.00      0.00      0.00
                                0.00      0.00      0.00
                                0.00      0.00      0.00

     DFT-D   stress (kbar)    -13.20      0.00     -0.00
                                0.00    -13.20      0.00
                               -0.00      0.00    -16.27

     XDM     stress (kbar)      0.00      0.00      0.00
                                0.00      0.00      0.00
                                0.00      0.00      0.00

     dft-nl  stress (kbar)      0.00      0.00      0.00
                                0.00      0.00      0.00
                                0.00      0.00      0.00

     TS-vdW  stress (kbar)      0.00      0.00      0.00
                                0.00      0.00      0.00
                                0.00      0.00      0.00

     MDB     stress (kbar)      0.00      0.00      0.00
                                0.00      0.00      0.00
                                0.00      0.00      0.00

     3D-RISM stress (kbar)      0.00      0.00      0.00
                                0.00      0.00      0.00
                                0.00      0.00      0.00

     Message from routine bfgs:
     history already reset at previous step: exiting
     Energy error            =      8.9E-09 Ry
     Gradient error          =      2.1E-05 Ry/Bohr
     Cell gradient error     =      8.3E-03 kbar

     bfgs failed after  19 scf cycles and  18 bfgs steps, convergence not achieved
     (criteria: energy <  1.0E-04 Ry, force <  1.0E-06 Ry/Bohr, cell <  5.0E-01 kbar)

     End of BFGS Geometry Optimization

     Final enthalpy           =   -1118.2925650835 Ry

     File ./out/Nb3Br8.bfgs deleted, as requested
Begin final coordinates
     new unit-cell volume =   3829.97442 a.u.^3 (   567.54365 Ang^3 )
     density =      5.37155 g/cm^3

CELL_PARAMETERS (angstrom)
   6.151244551   3.551422697  -0.000000000
  -6.151244551   3.551422697   0.000000000
  -4.100829701   0.000000000  12.989843448

ATOMIC_POSITIONS (crystal)
Nb               0.0505545914       -0.0505545914       -0.2527644996
Nb               0.0505545914        0.3538736823       -0.2527644996
Nb              -0.3538736823       -0.0505545914       -0.2527644996
Nb              -0.0505545914        0.0505545914        0.2527644996
Nb              -0.0505545914       -0.3538736823        0.2527644996
Nb               0.3538736823        0.0505545914        0.2527644996
Br              -0.1349645771        0.1349645771       -0.4048937314
Br               0.3819181500       -0.3819181500       -0.3636003090
Br               0.3819181500        0.1274366089       -0.3636003090
Br              -0.1274366089       -0.3819181500       -0.3636003090
Br               0.2854666824       -0.2854666824       -0.1435999527
Br              -0.2056300389        0.2056300389       -0.1179893712
Br              -0.2056300389       -0.2932707066       -0.1179893712
Br               0.2932707066        0.2056300389       -0.1179893712
Br               0.2056300389       -0.2056300389        0.1179893712
Br               0.2056300389        0.2932707066        0.1179893712
Br              -0.2932707066       -0.2056300389        0.1179893712
Br              -0.2854666824        0.2854666824        0.1435999527
Br              -0.3819181500        0.3819181500        0.3636003090
Br              -0.3819181500       -0.1274366089        0.3636003090
Br               0.1274366089        0.3819181500        0.3636003090
Br               0.1349645771       -0.1349645771        0.4048937314
End final coordinates



     Writing config-only to output data dir ./out/Nb3Br8.save/ :
     XML data file

     Writing all to output data dir ./out/Nb3Br8.save/ :
     XML data file, charge density, pseudopotentials, collected wavefunctions

     init_run     :      1.58s CPU      1.70s WALL (       1 calls)
     electrons    :    781.53s CPU    810.69s WALL (      19 calls)
     update_pot   :      0.70s CPU      0.77s WALL (      18 calls)
     forces       :      9.45s CPU     10.59s WALL (      19 calls)
     force_dftd3  :      0.42s CPU      0.45s WALL (      19 calls)
     stress       :     99.46s CPU    103.06s WALL (      19 calls)
     stres_dftd3  :      0.36s CPU      0.39s WALL (      19 calls)

     Called by init_run:
     wfcinit      :      0.50s CPU      0.55s WALL (       1 calls)
     wfcinit:wfcr :      0.43s CPU      0.46s WALL (       2 calls)
     potinit      :      0.46s CPU      0.47s WALL (       1 calls)
     hinit0       :      0.48s CPU      0.52s WALL (       1 calls)

     Called by electrons:
     c_bands      :    709.41s CPU    729.27s WALL (     290 calls)
     sum_band     :     55.64s CPU     57.55s WALL (     290 calls)
     v_of_rho     :      9.58s CPU     11.30s WALL (     290 calls)
     v_h          :      0.75s CPU      0.85s WALL (     290 calls)
     v_xc         :      8.83s CPU     10.45s WALL (     290 calls)
     mix_rho      :      2.52s CPU      2.78s WALL (     290 calls)
     energy_dftd3 :      0.16s CPU      0.16s WALL (      19 calls)

     Called by c_bands:
     init_us_2    :     23.94s CPU     24.59s WALL (    1238 calls)
     cegterg      :    553.10s CPU    569.75s WALL (     581 calls)

     Called by sum_band:
     sum_band:wei :      1.18s CPU      1.22s WALL (     290 calls)
     sum_band:loo :     49.31s CPU     50.77s WALL (     290 calls)
     sum_band:buf :      2.38s CPU      2.44s WALL (     580 calls)
     sum_band:ini :     11.39s CPU     11.69s WALL (     580 calls)

     Called by *egterg:
     cdiaghg      :     74.40s CPU     75.65s WALL (    4076 calls)
     cegterg:over :     46.80s CPU     47.45s WALL (    3569 calls)
     cegterg:upda :     27.67s CPU     29.08s WALL (    3569 calls)
     cegterg:last :     36.63s CPU     37.67s WALL (    1380 calls)
     h_psi        :    340.40s CPU    351.21s WALL (    4152 calls)
     g_psi        :      1.03s CPU      1.05s WALL (    3569 calls)

     Called by h_psi:
     h_psi:calbec :     69.00s CPU     70.86s WALL (    4152 calls)
     vloc_psi     :    207.01s CPU    212.02s WALL (    4152 calls)
     add_vuspsi   :     60.70s CPU     62.15s WALL (    4152 calls)

     General routines
     calbec       :     75.56s CPU     77.53s WALL (    4342 calls)
     fft          :      3.37s CPU      4.21s WALL (    3070 calls)
     ffts         :      0.38s CPU      0.46s WALL (     290 calls)
     fftw         :    219.90s CPU    225.51s WALL (  455688 calls)
     davcio       :      0.00s CPU      0.00s WALL (       2 calls)

     Parallel routines

     PWSCF        :    900.60s CPU    952.06s WALL


   This run was terminated on:  18:30:31   5Jul2025            

=------------------------------------------------------------------------------=
   JOB DONE.
=------------------------------------------------------------------------------=
