
     Program PWSCF v.7.3.1 starts on  7May2025 at 21:57:32 

     This program is part of the open-source Quantum ESPRESSO suite
     for quantum simulation of materials; please cite
         "P. Giannozzi et al., J. Phys.:Condens. Matter 21 395502 (2009);
         "P. Giannozzi et al., J. Phys.:Condens. Matter 29 465901 (2017);
         "P. Giannozzi et al., J. Chem. Phys. 152 154105 (2020);
          URL http://www.quantum-espresso.org", 
     in publications or presentations arising from this work. More details at
     http://www.quantum-espresso.org/quote

     Parallel version (MPI & OpenMP), running on     384 processor cores
     Number of MPI processes:               384
     Threads/MPI process:                     1

     MPI processes distributed on     2 nodes
     337321 MiB available memory on the printing compute node when the environment starts

     Waiting for input...
     Reading input from standard input
Warning: card &CELL ignored
Warning: card / ignored
Warning: card &FCP ignored
Warning: card / ignored
Warning: card &RISM ignored
Warning: card / ignored

     Current dimensions of program PWSCF are:
     Max number of different atomic species (ntypx) = 10
     Max number of k-points (npk) =  40000
     Max angular momentum in pseudopotentials (lmaxx) =  4

     IMPORTANT: XC functional enforced from input :
     Exchange-correlation= PBE
                           (   1   4   3   4   0   0   0)
     Any further DFT definition will be discarded
     Please, verify this is what you really want

     Message from routine setup:
     using ibrav=0 with symmetry is DISCOURAGED, use correct ibrav instead
     Message from routine setup:
     Dynamics, you should have no symmetries

     K-points division:     npool     =      16
     R & G space division:  proc/nbgrp/npool/nimage =      24
     Subspace diagonalization in iterative solution of the eigenvalue problem:
     a serial algorithm will be used

     Message from routine divide_et_impera:
     suboptimal parallelization: some nodes have no k-points

     Parallelization info
     --------------------
     sticks:   dense  smooth     PW     G-vecs:    dense   smooth      PW
     Min         142     142     38                27850    27850    3886
     Max         143     143     39                27875    27875    3911
     Sum        3427    3427    925               668819   668819   93523

     Using Slab Decomposition



     bravais-lattice index     =            0
     lattice parameter (alat)  =      11.1557  a.u.
     unit-cell volume          =    4949.5834 (a.u.)^3
     number of atoms/cell      =           11
     number of atomic types    =            2
     number of electrons       =        95.00
     number of Kohn-Sham states=           58
     kinetic-energy cutoff     =     100.0000  Ry
     charge density cutoff     =     400.0000  Ry
     scf convergence threshold =      1.0E-12
     mixing beta               =       0.7000
     number of iterations used =            8  plain     mixing
     energy convergence thresh.=      1.0E-04
     force convergence thresh. =      1.0E-06
     Exchange-correlation= PBE
                           (   1   4   3   4   0   0   0)
     nstep                     =           50


     celldm(1)=  11.155732  celldm(2)=   0.000000  celldm(3)=   0.000000
     celldm(4)=   0.000000  celldm(5)=   0.000000  celldm(6)=   0.000000

     crystal axes: (cart. coord. in units of alat)
               a(1) = (   0.866025   0.500000   0.000000 )  
               a(2) = (  -0.866025   0.500000   0.000000 )  
               a(3) = (   0.000000   0.000000   4.116649 )  

     reciprocal axes: (cart. coord. in units 2 pi/alat)
               b(1) = (  0.577350  1.000000 -0.000000 )  
               b(2) = ( -0.577350  1.000000  0.000000 )  
               b(3) = (  0.000000 -0.000000  0.242916 )  


     PseudoPot. # 1 for Nb read from file:
     /scratch-shared/mroesner/Nb3X8_cDFPT/pp/Nb_ONCV_PBE-1.2.upf
     MD5 check sum: 2c750ac0b6910ff4cf0ab5f6c4124a64
     Pseudo is Norm-conserving, Zval = 13.0
     Generated using ONCVPSP code by D. R. Hamann
     Using radial grid of  602 points,  6 beta functions with: 
                l(1) =   0
                l(2) =   0
                l(3) =   1
                l(4) =   1
                l(5) =   2
                l(6) =   2

     PseudoPot. # 2 for F  read from file:
     /scratch-shared/mroesner/Nb3X8_cDFPT/pp/F_ONCV_PBE-1.2.upf
     MD5 check sum: 1d8275f47d602dd53cad6bcdc0eda7dc
     Pseudo is Norm-conserving, Zval =  7.0
     Generated using ONCVPSP code by D. R. Hamann
     Using radial grid of  602 points,  4 beta functions with: 
                l(1) =   0
                l(2) =   0
                l(3) =   1
                l(4) =   1

     atomic species   valence    mass     pseudopotential
     Nb               13.00    92.90637     Nb( 1.00)
     F                 7.00    18.99840     F ( 1.00)

      6 Sym. Ops. (no inversion) found


                                    s                        frac. trans.

      isym =  1     identity                                     

 cryst.   s( 1) = (     1          0          0      )
                  (     0          1          0      )
                  (     0          0          1      )

 cart.    s( 1) = (  1.0000000 -0.0000000  0.0000000 )
                  (  0.0000000  1.0000000  0.0000000 )
                  (  0.0000000  0.0000000  1.0000000 )


      isym =  2     120 deg rotation - cryst. axis [0,0,1]       

 cryst.   s( 2) = (     0          1          0      )
                  (    -1         -1          0      )
                  (     0          0          1      )

 cart.    s( 2) = ( -0.5000000 -0.8660254  0.0000000 )
                  (  0.8660254 -0.5000000  0.0000000 )
                  (  0.0000000  0.0000000  1.0000000 )


      isym =  3     120 deg rotation - cryst. axis [0,0,-1]      

 cryst.   s( 3) = (    -1         -1          0      )
                  (     1          0          0      )
                  (     0          0          1      )

 cart.    s( 3) = ( -0.5000000  0.8660254  0.0000000 )
                  ( -0.8660254 -0.5000000  0.0000000 )
                  (  0.0000000  0.0000000  1.0000000 )


      isym =  4     inv. 180 deg rotation - cart. axis [0,1,0]   

 cryst.   s( 4) = (     0         -1          0      )
                  (    -1          0          0      )
                  (     0          0          1      )

 cart.    s( 4) = (  1.0000000  0.0000000  0.0000000 )
                  (  0.0000000 -1.0000000  0.0000000 )
                  (  0.0000000  0.0000000  1.0000000 )


      isym =  5     inv. 180 deg rotation - cryst. axis [1,-1,0] 

 cryst.   s( 5) = (     1          1          0      )
                  (     0         -1          0      )
                  (     0          0          1      )

 cart.    s( 5) = ( -0.5000000  0.8660254  0.0000000 )
                  (  0.8660254  0.5000000  0.0000000 )
                  (  0.0000000  0.0000000  1.0000000 )


      isym =  6     inv. 180 deg rotation - cryst. axis [2,1,0]  

 cryst.   s( 6) = (    -1          0          0      )
                  (     1          1          0      )
                  (     0          0          1      )

 cart.    s( 6) = ( -0.5000000 -0.8660254  0.0000000 )
                  ( -0.8660254  0.5000000  0.0000000 )
                  (  0.0000000  0.0000000  1.0000000 )


   Cartesian axes

     site n.     atom                  positions (alat units)
         1        Nb     tau(   1) = (   0.2522262   0.0000000  -0.4276782  )
         2        Nb     tau(   2) = (  -0.1261131   0.2184343  -0.4276782  )
         3        Nb     tau(   3) = (  -0.1261131  -0.2184343  -0.4276782  )
         4        F      tau(   4) = (   0.0000000   0.0000000  -0.6939995  )
         5        F      tau(   5) = (   0.8540048   0.0000000  -0.6145021  )
         6        F      tau(   6) = (   0.4390230   0.2395899  -0.6145021  )
         7        F      tau(   7) = (   0.4390230  -0.2395899  -0.6145021  )
         8        F      tau(   8) = (   0.5773503  -0.0000000  -0.2355344  )
         9        F      tau(   9) = (  -0.2803149   0.0000000  -0.2003061  )
        10        F      tau(  10) = (   0.1401575  -0.2427598  -0.2003061  )
        11        F      tau(  11) = (   0.1401575   0.2427598  -0.2003061  )

     --------------------------------------------
     DFT-D3 Dispersion Correction (no 3-body):
     --------------------------------------------
       Reference C6 values for interpolation: 

         atom   Coordination number   C6
         F          0.000            19.38
         F          0.998            14.27
         Nb         0.000          2950.50
         Nb         1.954          1161.16
         Nb         2.922           857.79

       Values used:

         atom   Coordination number  R0_AB[au]  C6      C8
         Nb         9.395            3.647    857.79 111659.18
         Nb         9.395            3.647    857.79 111659.18
         Nb         9.395            3.647    857.79 111659.18
         F          2.907            2.173     14.27    244.15
         F          2.017            2.173     14.27    244.15
         F          2.017            2.173     14.27    244.15
         F          2.017            2.173     14.27    244.15
         F          2.843            2.173     14.27    244.15
         F          2.020            2.173     14.27    244.15
         F          2.020            2.173     14.27    244.15
         F          2.020            2.173     14.27    244.15

         Molecular C6 ( Ry / a.u.^6 ) =     13163.94


   Crystallographic axes

     site n.     atom                  positions (cryst. coord.)
         1        Nb     tau(   1) = (  0.1456229 -0.1456229 -0.1038899  )
         2        Nb     tau(   2) = (  0.1456229  0.2912458 -0.1038899  )
         3        Nb     tau(   3) = ( -0.2912458 -0.1456229 -0.1038899  )
         4        F      tau(   4) = (  0.0000000  0.0000000 -0.1685836  )
         5        F      tau(   5) = (  0.4930599 -0.4930599 -0.1492724  )
         6        F      tau(   6) = (  0.4930599 -0.0138802 -0.1492724  )
         7        F      tau(   7) = (  0.0138802 -0.4930599 -0.1492724  )
         8        F      tau(   8) = (  0.3333333 -0.3333333 -0.0572151  )
         9        F      tau(   9) = ( -0.1618399  0.1618399 -0.0486576  )
        10        F      tau(  10) = ( -0.1618399 -0.3236798 -0.0486576  )
        11        F      tau(  11) = (  0.3236798  0.1618399 -0.0486576  )

     number of k points=     7  Marzari-Vanderbilt smearing, width (Ry)=  0.0037
                       cart. coord. in units 2pi/alat
        k(    1) = (   0.0000000   0.0000000   0.0000000), wk =   0.0555556
        k(    2) = (  -0.0962250   0.1666667   0.0000000), wk =   0.3333333
        k(    3) = (  -0.1924501   0.3333333   0.0000000), wk =   0.3333333
        k(    4) = (   0.2886751  -0.5000000   0.0000000), wk =   0.1666667
        k(    5) = (  -0.0000000   0.3333333   0.0000000), wk =   0.3333333
        k(    6) = (  -0.0962250   0.5000000   0.0000000), wk =   0.6666667
        k(    7) = (  -0.0000000   0.6666667   0.0000000), wk =   0.1111111

                       cryst. coord.
        k(    1) = (   0.0000000   0.0000000   0.0000000), wk =   0.0555556
        k(    2) = (  -0.0000000   0.1666667   0.0000000), wk =   0.3333333
        k(    3) = (  -0.0000000   0.3333333   0.0000000), wk =   0.3333333
        k(    4) = (   0.0000000  -0.5000000   0.0000000), wk =   0.1666667
        k(    5) = (   0.1666667   0.1666667   0.0000000), wk =   0.3333333
        k(    6) = (   0.1666667   0.3333333   0.0000000), wk =   0.6666667
        k(    7) = (   0.3333333   0.3333333   0.0000000), wk =   0.1111111

     Dense  grid:   668819 G-vectors     FFT dimensions: (  72,  72, 300)

     Dynamical RAM for                 wfc:       3.08 MB

     Dynamical RAM for     wfc (w. buffer):       3.08 MB

     Dynamical RAM for           str. fact:       0.85 MB

     Dynamical RAM for           local pot:       0.00 MB

     Dynamical RAM for          nlocal pot:       6.27 MB

     Dynamical RAM for                qrad:       3.21 MB

     Dynamical RAM for          rho,v,vnew:       2.82 MB

     Dynamical RAM for               rhoin:       0.94 MB

     Dynamical RAM for            rho*nmix:       6.81 MB

     Dynamical RAM for           G-vectors:       1.81 MB

     Dynamical RAM for          h,s,v(r/c):       0.62 MB

     Dynamical RAM for          <psi|beta>:       0.10 MB

     Dynamical RAM for                 psi:       6.16 MB

     Dynamical RAM for                hpsi:       6.16 MB

     Dynamical RAM for      wfcinit/wfcrot:       6.24 MB

     Estimated static dynamical RAM per process >      22.83 MB

     Estimated max dynamical RAM per process >      42.68 MB

     Estimated total dynamical RAM >      13.61 GB

     Initial potential from superposition of free atoms

     starting charge      94.6507, renormalised to      95.0000

     negative rho (up, down):  1.135E-03 0.000E+00
     Starting wfcs are random

     total cpu time spent up to now is        2.9 secs

     per-process dynamical memory:   164.8 Mb

     Self-consistent Calculation

     iteration #  1     ecut=   100.00 Ry     beta= 0.70
     Davidson diagonalization with overlap

---- Real-time Memory Report at c_bands before calling an iterative solver
           212 MiB given to the printing process from OS
           160 MiB allocation reported by mallinfo(arena+hblkhd)
        328490 MiB available memory on the node where the printing process lives
------------------
     ethr =  1.00E-02,  avg # of iterations = 16.4

     Threshold (ethr) on eigenvalues was too large:
     Diagonalizing with lowered threshold

     Davidson diagonalization with overlap

---- Real-time Memory Report at c_bands before calling an iterative solver
           241 MiB given to the printing process from OS
           160 MiB allocation reported by mallinfo(arena+hblkhd)
        327512 MiB available memory on the node where the printing process lives
------------------
     ethr =  8.22E-04,  avg # of iterations =  8.1

     negative rho (up, down):  2.541E-04 0.000E+00

     total cpu time spent up to now is        5.1 secs

     total energy              =    -725.06018016 Ry
     estimated scf accuracy    <       0.92045105 Ry

     iteration #  2     ecut=   100.00 Ry     beta= 0.70
     Davidson diagonalization with overlap

---- Real-time Memory Report at c_bands before calling an iterative solver
           243 MiB given to the printing process from OS
           163 MiB allocation reported by mallinfo(arena+hblkhd)
        327932 MiB available memory on the node where the printing process lives
------------------
     ethr =  9.69E-04,  avg # of iterations =  6.1

     negative rho (up, down):  1.515E-04 0.000E+00

     total cpu time spent up to now is        5.7 secs

     total energy              =    -725.14778297 Ry
     estimated scf accuracy    <       1.15840735 Ry

     iteration #  3     ecut=   100.00 Ry     beta= 0.70
     Davidson diagonalization with overlap

---- Real-time Memory Report at c_bands before calling an iterative solver
           251 MiB given to the printing process from OS
           164 MiB allocation reported by mallinfo(arena+hblkhd)
        327891 MiB available memory on the node where the printing process lives
------------------
     ethr =  9.69E-04,  avg # of iterations =  3.4

     negative rho (up, down):  6.229E-05 0.000E+00

     total cpu time spent up to now is        6.3 secs

     total energy              =    -725.41861826 Ry
     estimated scf accuracy    <       0.05355035 Ry

     iteration #  4     ecut=   100.00 Ry     beta= 0.70
     Davidson diagonalization with overlap

---- Real-time Memory Report at c_bands before calling an iterative solver
           251 MiB given to the printing process from OS
           165 MiB allocation reported by mallinfo(arena+hblkhd)
        327828 MiB available memory on the node where the printing process lives
------------------
     ethr =  5.64E-05,  avg # of iterations =  6.3

     negative rho (up, down):  1.073E-05 0.000E+00

     total cpu time spent up to now is        6.8 secs

     total energy              =    -725.42863981 Ry
     estimated scf accuracy    <       0.00583145 Ry

     iteration #  5     ecut=   100.00 Ry     beta= 0.70
     Davidson diagonalization with overlap

---- Real-time Memory Report at c_bands before calling an iterative solver
           254 MiB given to the printing process from OS
           166 MiB allocation reported by mallinfo(arena+hblkhd)
        327830 MiB available memory on the node where the printing process lives
------------------
     ethr =  6.14E-06,  avg # of iterations =  6.7

     negative rho (up, down):  1.352E-06 0.000E+00

     total cpu time spent up to now is        7.4 secs

     total energy              =    -725.42945999 Ry
     estimated scf accuracy    <       0.00278355 Ry

     iteration #  6     ecut=   100.00 Ry     beta= 0.70
     Davidson diagonalization with overlap

---- Real-time Memory Report at c_bands before calling an iterative solver
           254 MiB given to the printing process from OS
           167 MiB allocation reported by mallinfo(arena+hblkhd)
        327804 MiB available memory on the node where the printing process lives
------------------
     ethr =  2.93E-06,  avg # of iterations =  4.6

     total cpu time spent up to now is        7.8 secs

     total energy              =    -725.43009572 Ry
     estimated scf accuracy    <       0.00014779 Ry

     iteration #  7     ecut=   100.00 Ry     beta= 0.70
     Davidson diagonalization with overlap

---- Real-time Memory Report at c_bands before calling an iterative solver
           256 MiB given to the printing process from OS
           167 MiB allocation reported by mallinfo(arena+hblkhd)
        327812 MiB available memory on the node where the printing process lives
------------------
     ethr =  1.56E-07,  avg # of iterations =  7.0

     total cpu time spent up to now is        8.6 secs

     total energy              =    -725.43012572 Ry
     estimated scf accuracy    <       0.00002277 Ry

     iteration #  8     ecut=   100.00 Ry     beta= 0.70
     Davidson diagonalization with overlap

---- Real-time Memory Report at c_bands before calling an iterative solver
           256 MiB given to the printing process from OS
           168 MiB allocation reported by mallinfo(arena+hblkhd)
        327795 MiB available memory on the node where the printing process lives
------------------
     ethr =  2.40E-08,  avg # of iterations =  4.7

     negative rho (up, down):  2.184E-08 0.000E+00

     total cpu time spent up to now is        9.2 secs

     total energy              =    -725.43013047 Ry
     estimated scf accuracy    <       0.00000182 Ry

     iteration #  9     ecut=   100.00 Ry     beta= 0.70
     Davidson diagonalization with overlap

---- Real-time Memory Report at c_bands before calling an iterative solver
           259 MiB given to the printing process from OS
           169 MiB allocation reported by mallinfo(arena+hblkhd)
        327782 MiB available memory on the node where the printing process lives
------------------
     ethr =  1.92E-09,  avg # of iterations =  6.0

     total cpu time spent up to now is        9.8 secs

     total energy              =    -725.43013088 Ry
     estimated scf accuracy    <       0.00000007 Ry

     iteration # 10     ecut=   100.00 Ry     beta= 0.70
     Davidson diagonalization with overlap

---- Real-time Memory Report at c_bands before calling an iterative solver
           260 MiB given to the printing process from OS
           170 MiB allocation reported by mallinfo(arena+hblkhd)
        327759 MiB available memory on the node where the printing process lives
------------------
     ethr =  6.97E-11,  avg # of iterations =  7.6

     total cpu time spent up to now is       10.5 secs

     total energy              =    -725.43013090 Ry
     estimated scf accuracy    <       0.00000001 Ry

     iteration # 11     ecut=   100.00 Ry     beta= 0.70
     Davidson diagonalization with overlap

---- Real-time Memory Report at c_bands before calling an iterative solver
           260 MiB given to the printing process from OS
           170 MiB allocation reported by mallinfo(arena+hblkhd)
        327755 MiB available memory on the node where the printing process lives
------------------
     ethr =  1.30E-11,  avg # of iterations =  6.3

     total cpu time spent up to now is       11.1 secs

     total energy              =    -725.43013090 Ry
     estimated scf accuracy    <          1.3E-09 Ry

     iteration # 12     ecut=   100.00 Ry     beta= 0.70
     Davidson diagonalization with overlap

---- Real-time Memory Report at c_bands before calling an iterative solver
           260 MiB given to the printing process from OS
           170 MiB allocation reported by mallinfo(arena+hblkhd)
        327739 MiB available memory on the node where the printing process lives
------------------
     ethr =  1.42E-12,  avg # of iterations =  7.1

     total cpu time spent up to now is       11.7 secs

     total energy              =    -725.43013090 Ry
     estimated scf accuracy    <          1.7E-10 Ry

     iteration # 13     ecut=   100.00 Ry     beta= 0.70
     Davidson diagonalization with overlap

---- Real-time Memory Report at c_bands before calling an iterative solver
           260 MiB given to the printing process from OS
           170 MiB allocation reported by mallinfo(arena+hblkhd)
        327747 MiB available memory on the node where the printing process lives
------------------
     ethr =  1.84E-13,  avg # of iterations = 12.1

     total cpu time spent up to now is       12.4 secs

     total energy              =    -725.43013090 Ry
     estimated scf accuracy    <          6.9E-12 Ry

     iteration # 14     ecut=   100.00 Ry     beta= 0.70
     Davidson diagonalization with overlap

---- Real-time Memory Report at c_bands before calling an iterative solver
           260 MiB given to the printing process from OS
           170 MiB allocation reported by mallinfo(arena+hblkhd)
        327748 MiB available memory on the node where the printing process lives
------------------
     ethr =  1.00E-13,  avg # of iterations =  2.6

     total cpu time spent up to now is       12.8 secs

     End of self-consistent calculation

          k = 0.0000 0.0000 0.0000 ( 83541 PWs)   bands (ev):

   -58.4856 -58.2209 -58.2209 -35.6284 -35.0778 -35.0778 -34.9572 -34.4495
   -34.4495 -34.0225 -33.7979 -33.7979 -28.0549 -27.4696 -27.3904 -27.2483
   -27.2483 -26.6762 -26.5932 -26.5932 -10.5767 -10.5677 -10.5677 -10.2365
    -9.9046  -9.9046  -9.7785  -9.6881  -9.4750  -9.4750  -9.2994  -9.2994
    -9.2049  -8.6419  -8.6419  -8.6388  -8.4054  -8.3523  -8.3523  -8.2604
    -7.8890  -7.8890  -7.7391  -7.7391  -4.0817  -3.3550  -3.3550  -1.7542
    -0.6174  -0.6174  -0.1712   0.2780   0.2780   0.7061   1.1471   1.1471
     1.1659   1.5044

     occupation numbers 
     1.0000   1.0000   1.0000   1.0000   1.0000   1.0000   1.0000   1.0000
     1.0000   1.0000   1.0000   1.0000   1.0000   1.0000   1.0000   1.0000
     1.0000   1.0000   1.0000   1.0000   1.0000   1.0000   1.0000   1.0000
     1.0000   1.0000   1.0000   1.0000   1.0000   1.0000   1.0000   1.0000
     1.0000   1.0000   1.0000   1.0000   1.0000   1.0000   1.0000   1.0000
     1.0000   1.0000   1.0000   1.0000   1.0000   1.0000   1.0000   0.0000
     0.0000   0.0000   0.0000   0.0000   0.0000   0.0000   0.0000   0.0000
     0.0000   0.0000

          k =-0.0962 0.1667 0.0000 ( 83555 PWs)   bands (ev):

   -58.4822 -58.2244 -58.2209 -35.5854 -35.0690 -35.0416 -34.9419 -34.4714
   -34.4532 -34.0542 -33.8694 -33.8097 -28.0127 -27.4956 -27.3524 -27.2357
   -27.1995 -26.6999 -26.6312 -26.6092 -10.6053 -10.5052 -10.3768 -10.2862
   -10.0105  -9.9487  -9.6960  -9.6833  -9.4057  -9.3667  -9.3097  -9.2738
    -9.2144  -8.7578  -8.6762  -8.5750  -8.4560  -8.3630  -8.3420  -8.2845
    -7.9843  -7.9318  -7.7686  -7.7065  -4.1240  -3.3230  -3.3094  -1.8159
    -0.6172  -0.6112  -0.1115   0.1528   0.2276   0.8665   0.8885   1.0342
     1.2618   1.3756

     occupation numbers 
     1.0000   1.0000   1.0000   1.0000   1.0000   1.0000   1.0000   1.0000
     1.0000   1.0000   1.0000   1.0000   1.0000   1.0000   1.0000   1.0000
     1.0000   1.0000   1.0000   1.0000   1.0000   1.0000   1.0000   1.0000
     1.0000   1.0000   1.0000   1.0000   1.0000   1.0000   1.0000   1.0000
     1.0000   1.0000   1.0000   1.0000   1.0000   1.0000   1.0000   1.0000
     1.0000   1.0000   1.0000   1.0000   1.0000   1.0000   1.0000   0.0000
     0.0000   0.0000   0.0000   0.0000   0.0000   0.0000   0.0000   0.0000
     0.0000   0.0000

          k =-0.1925 0.3333 0.0000 ( 83585 PWs)   bands (ev):

   -58.4753 -58.2318 -58.2210 -35.4934 -35.0405 -34.9567 -34.9067 -34.5230
   -34.4658 -34.1315 -34.0249 -33.8263 -27.9121 -27.5668 -27.3042 -27.1478
   -27.0724 -26.8009 -26.7371 -26.6205 -10.6316 -10.4218 -10.2759 -10.0508
   -10.0330  -9.7865  -9.7035  -9.6598  -9.5154  -9.3779  -9.3589  -9.1504
    -9.1427  -8.8912  -8.7021  -8.6177  -8.4890  -8.4161  -8.3878  -8.2961
    -8.1250  -7.9963  -7.8238  -7.6669  -4.2126  -3.2529  -3.2129  -1.9445
    -0.6224  -0.6065  -0.1286   0.0416   0.0699   0.6045   0.6426   1.1679
     1.2736   1.6604

     occupation numbers 
     1.0000   1.0000   1.0000   1.0000   1.0000   1.0000   1.0000   1.0000
     1.0000   1.0000   1.0000   1.0000   1.0000   1.0000   1.0000   1.0000
     1.0000   1.0000   1.0000   1.0000   1.0000   1.0000   1.0000   1.0000
     1.0000   1.0000   1.0000   1.0000   1.0000   1.0000   1.0000   1.0000
     1.0000   1.0000   1.0000   1.0000   1.0000   1.0000   1.0000   1.0000
     1.0000   1.0000   1.0000   1.0000   1.0000   1.0000   1.0000   0.1625
     0.0000   0.0000   0.0000   0.0000   0.0000   0.0000   0.0000   0.0000
     0.0000   0.0000

          k = 0.2887-0.5000 0.0000 ( 83612 PWs)   bands (ev):

   -58.4716 -58.2357 -58.2210 -35.4449 -35.0158 -34.9043 -34.8859 -34.5559
   -34.4778 -34.1768 -34.1114 -33.8321 -27.8408 -27.6242 -27.2961 -27.0142
   -26.9444 -26.9296 -26.8545 -26.6213 -10.6886 -10.4266 -10.0424  -9.9441
    -9.8410  -9.8281  -9.8196  -9.6456  -9.4689  -9.4633  -9.3138  -9.1995
    -9.0938  -9.0742  -8.6695  -8.6457  -8.5133  -8.4369  -8.4334  -8.2766
    -8.1432  -8.0268  -7.8646  -7.6525  -4.2590  -3.2137  -3.1610  -2.0119
    -0.6512  -0.5989  -0.2472  -0.0263   0.1167   0.4443   0.5744   1.0925
     1.2716   1.8301

     occupation numbers 
     1.0000   1.0000   1.0000   1.0000   1.0000   1.0000   1.0000   1.0000
     1.0000   1.0000   1.0000   1.0000   1.0000   1.0000   1.0000   1.0000
     1.0000   1.0000   1.0000   1.0000   1.0000   1.0000   1.0000   1.0000
     1.0000   1.0000   1.0000   1.0000   1.0000   1.0000   1.0000   1.0000
     1.0000   1.0000   1.0000   1.0000   1.0000   1.0000   1.0000   1.0000
     1.0000   1.0000   1.0000   1.0000   1.0000   1.0000   1.0000   0.9982
     0.0000   0.0000   0.0000   0.0000   0.0000   0.0000   0.0000   0.0000
     0.0000   0.0000

          k =-0.0000 0.3333 0.0000 ( 83628 PWs)   bands (ev):

   -58.4770 -58.2299 -58.2210 -35.5156 -35.0517 -34.9822 -34.9159 -34.5076
   -34.4619 -34.1144 -33.9624 -33.8390 -27.9402 -27.5457 -27.2887 -27.2193
   -27.0981 -26.7782 -26.6561 -26.6539 -10.6095 -10.4013 -10.3153 -10.1732
   -10.0684  -9.8744  -9.7508  -9.5168  -9.4431  -9.3541  -9.3387  -9.2554
    -9.1512  -8.8074  -8.7577  -8.5632  -8.5067  -8.4115  -8.3545  -8.2670
    -8.1790  -7.9517  -7.7636  -7.7104  -4.1889  -3.2804  -3.2298  -1.9110
    -0.6321  -0.5939  -0.0716   0.0202   0.1447   0.6335   0.7687   1.0341
     1.3445   1.5421

     occupation numbers 
     1.0000   1.0000   1.0000   1.0000   1.0000   1.0000   1.0000   1.0000
     1.0000   1.0000   1.0000   1.0000   1.0000   1.0000   1.0000   1.0000
     1.0000   1.0000   1.0000   1.0000   1.0000   1.0000   1.0000   1.0000
     1.0000   1.0000   1.0000   1.0000   1.0000   1.0000   1.0000   1.0000
     1.0000   1.0000   1.0000   1.0000   1.0000   1.0000   1.0000   1.0000
     1.0000   1.0000   1.0000   1.0000   1.0000   1.0000   1.0000   0.0204
     0.0000   0.0000   0.0000   0.0000   0.0000   0.0000   0.0000   0.0000
     0.0000   0.0000

          k =-0.0962 0.5000 0.0000 ( 83565 PWs)   bands (ev):

   -58.4716 -58.2357 -58.2210 -35.4369 -35.0176 -34.9292 -34.8863 -34.5439
   -34.4801 -34.1744 -34.0704 -33.8665 -27.8401 -27.6245 -27.2474 -27.1183
   -26.9764 -26.8961 -26.7637 -26.6581 -10.6566 -10.3704 -10.2024 -10.0419
    -9.9149  -9.8252  -9.6992  -9.4937  -9.4749  -9.3853  -9.3494  -9.2069
    -9.1495  -8.9659  -8.7125  -8.6644  -8.5819  -8.4695  -8.3672  -8.3352
    -8.1840  -7.9415  -7.8254  -7.7000  -4.2549  -3.2367  -3.1428  -2.0095
    -0.6687  -0.5809  -0.1721   0.0042   0.1370   0.4357   0.5312   0.9378
     1.4357   1.6973

     occupation numbers 
     1.0000   1.0000   1.0000   1.0000   1.0000   1.0000   1.0000   1.0000
     1.0000   1.0000   1.0000   1.0000   1.0000   1.0000   1.0000   1.0000
     1.0000   1.0000   1.0000   1.0000   1.0000   1.0000   1.0000   1.0000
     1.0000   1.0000   1.0000   1.0000   1.0000   1.0000   1.0000   1.0000
     1.0000   1.0000   1.0000   1.0000   1.0000   1.0000   1.0000   1.0000
     1.0000   1.0000   1.0000   1.0000   1.0000   1.0000   1.0000   0.9788
     0.0000   0.0000   0.0000   0.0000   0.0000   0.0000   0.0000   0.0000
     0.0000   0.0000

          k =-0.0000 0.6667 0.0000 ( 83670 PWs)   bands (ev):

   -58.4698 -58.2376 -58.2210 -35.4002 -34.9833 -34.9590 -34.8769 -34.5390
   -34.4953 -34.1723 -34.0882 -33.9095 -27.7794 -27.6778 -27.1160 -27.1148
   -27.1113 -26.8109 -26.7556 -26.7401 -10.6348 -10.3605 -10.2383  -9.9904
    -9.9439  -9.8265  -9.5384  -9.5020  -9.4806  -9.3066  -9.2869  -9.1896
    -9.1790  -9.0301  -8.7974  -8.6747  -8.6421  -8.5602  -8.4153  -8.3130
    -8.1612  -7.8541  -7.8133  -7.7812  -4.2735  -3.2348  -3.1032  -2.0414
    -0.6931  -0.5693  -0.0818  -0.0412   0.2432   0.2964   0.3966   0.8387
     1.5689   1.7229

     occupation numbers 
     1.0000   1.0000   1.0000   1.0000   1.0000   1.0000   1.0000   1.0000
     1.0000   1.0000   1.0000   1.0000   1.0000   1.0000   1.0000   1.0000
     1.0000   1.0000   1.0000   1.0000   1.0000   1.0000   1.0000   1.0000
     1.0000   1.0000   1.0000   1.0000   1.0000   1.0000   1.0000   1.0000
     1.0000   1.0000   1.0000   1.0000   1.0000   1.0000   1.0000   1.0000
     1.0000   1.0000   1.0000   1.0000   1.0000   1.0000   1.0000   1.0815
     0.0000   0.0000   0.0000   0.0000   0.0000   0.0000   0.0000   0.0000
     0.0000   0.0000

     the Fermi energy is    -1.9661 ev

!    total energy              =    -725.43013090 Ry
     estimated scf accuracy    <          3.9E-13 Ry
     smearing contrib. (-TS)   =       0.00008540 Ry
     internal energy E=F+TS    =    -725.43021630 Ry

     convergence has been achieved in  14 iterations

     Forces acting on atoms (cartesian axes, Ry/au):

     atom    1 type  1   force =    -0.00187000   -0.00000000   -0.00405517
     atom    2 type  1   force =     0.00093500   -0.00161947   -0.00405517
     atom    3 type  1   force =     0.00093500    0.00161947   -0.00405517
     atom    4 type  2   force =    -0.00000000    0.00000000   -0.00010049
     atom    5 type  2   force =    -0.00008135   -0.00000000    0.00002952
     atom    6 type  2   force =     0.00004068   -0.00007045    0.00002952
     atom    7 type  2   force =     0.00004068    0.00007045    0.00002952
     atom    8 type  2   force =     0.00000000    0.00000000    0.00318921
     atom    9 type  2   force =     0.00134766   -0.00000000    0.00299607
     atom   10 type  2   force =    -0.00067383    0.00116710    0.00299607
     atom   11 type  2   force =    -0.00067383   -0.00116710    0.00299607
     The non-local contrib.  to forces
     atom    1 type  1   force =    -0.37112943    0.00000000   -0.05430231
     atom    2 type  1   force =     0.18556471   -0.32140751   -0.05430231
     atom    3 type  1   force =     0.18556471    0.32140751   -0.05430231
     atom    4 type  2   force =    -0.00000000    0.00000000    1.51129892
     atom    5 type  2   force =    -0.58667097    0.00000000    0.96509284
     atom    6 type  2   force =     0.29333549   -0.50807197    0.96509284
     atom    7 type  2   force =     0.29333549    0.50807197    0.96509284
     atom    8 type  2   force =    -0.00000000    0.00000000   -1.05199671
     atom    9 type  2   force =     0.78691611   -0.00000000   -1.19173442
     atom   10 type  2   force =    -0.39345806    0.68148934   -1.19173442
     atom   11 type  2   force =    -0.39345806   -0.68148934   -1.19173442
     The ionic contribution  to forces
     atom    1 type  1   force =     7.14697366    0.00000000   -1.53293289
     atom    2 type  1   force =    -3.57348683    6.18946075   -1.53293289
     atom    3 type  1   force =    -3.57348683   -6.18946075   -1.53293289
     atom    4 type  2   force =    -0.00000000    0.00000000  -54.05470584
     atom    5 type  2   force =     6.66686622    0.00000000  -38.29159624
     atom    6 type  2   force =    -3.33343311    5.77367552  -38.29159623
     atom    7 type  2   force =    -3.33343311   -5.77367552  -38.29159623
     atom    8 type  2   force =     0.00000001    0.00000000   39.99459174
     atom    9 type  2   force =    -9.04057884    0.00000000   44.51123382
     atom   10 type  2   force =     4.52028942   -7.82937094   44.51123382
     atom   11 type  2   force =     4.52028942    7.82937094   44.51123382
     The local contribution  to forces
     atom    1 type  1   force =    -6.77675530    0.00000000    1.58320422
     atom    2 type  1   force =     3.38837760   -5.86884223    1.58320422
     atom    3 type  1   force =     3.38837760    5.86884223    1.58320422
     atom    4 type  2   force =     0.00000000    0.00000000   52.54278565
     atom    5 type  2   force =    -6.08044636   -0.00000000   37.32589887
     atom    6 type  2   force =     3.04022318   -5.26582102   37.32589887
     atom    7 type  2   force =     3.04022318    5.26582102   37.32589887
     atom    8 type  2   force =     0.00000004    0.00000000  -38.93895588
     atom    9 type  2   force =     8.25541127    0.00000000  -43.31571806
     atom   10 type  2   force =    -4.12770563    7.14939588  -43.31571806
     atom   11 type  2   force =    -4.12770563   -7.14939588  -43.31571806
     The core correction contribution to forces
     atom    1 type  1   force =     0.00000000    0.00000000    0.00000000
     atom    2 type  1   force =     0.00000000    0.00000000    0.00000000
     atom    3 type  1   force =     0.00000000    0.00000000    0.00000000
     atom    4 type  2   force =     0.00000000    0.00000000    0.00000000
     atom    5 type  2   force =     0.00000000    0.00000000    0.00000000
     atom    6 type  2   force =     0.00000000    0.00000000    0.00000000
     atom    7 type  2   force =     0.00000000    0.00000000    0.00000000
     atom    8 type  2   force =     0.00000000    0.00000000    0.00000000
     atom    9 type  2   force =     0.00000000    0.00000000    0.00000000
     atom   10 type  2   force =     0.00000000    0.00000000    0.00000000
     atom   11 type  2   force =     0.00000000    0.00000000    0.00000000
     The Hubbard contrib.    to forces
     atom    1 type  1   force =     0.00000000    0.00000000    0.00000000
     atom    2 type  1   force =     0.00000000    0.00000000    0.00000000
     atom    3 type  1   force =     0.00000000    0.00000000    0.00000000
     atom    4 type  2   force =     0.00000000    0.00000000    0.00000000
     atom    5 type  2   force =     0.00000000    0.00000000    0.00000000
     atom    6 type  2   force =     0.00000000    0.00000000    0.00000000
     atom    7 type  2   force =     0.00000000    0.00000000    0.00000000
     atom    8 type  2   force =     0.00000000    0.00000000    0.00000000
     atom    9 type  2   force =     0.00000000    0.00000000    0.00000000
     atom   10 type  2   force =     0.00000000    0.00000000    0.00000000
     atom   11 type  2   force =     0.00000000    0.00000000    0.00000000
     The SCF correction term to forces
     atom    1 type  1   force =     0.00000036   -0.00000000   -0.00000202
     atom    2 type  1   force =    -0.00000018    0.00000031   -0.00000202
     atom    3 type  1   force =    -0.00000018   -0.00000031   -0.00000202
     atom    4 type  2   force =    -0.00000000   -0.00000000   -0.00000014
     atom    5 type  2   force =    -0.00000002   -0.00000000   -0.00000043
     atom    6 type  2   force =     0.00000001   -0.00000002   -0.00000043
     atom    7 type  2   force =     0.00000001    0.00000002   -0.00000043
     atom    8 type  2   force =     0.00000000   -0.00000000   -0.00000042
     atom    9 type  2   force =    -0.00000018   -0.00000000   -0.00000054
     atom   10 type  2   force =     0.00000009   -0.00000016   -0.00000054
     atom   11 type  2   force =     0.00000009    0.00000016   -0.00000054

     DFT-D3 dispersion contribution to forces:
     atom    1 type  1   force =    -0.00095933   -0.00000000    0.00001836
     atom    2 type  1   force =     0.00047966   -0.00083080    0.00001836
     atom    3 type  1   force =     0.00047966    0.00083080    0.00001836
     atom    4 type  2   force =    -0.00000000   -0.00000000    0.00056146
     atom    5 type  2   force =     0.00016978    0.00000000    0.00067501
     atom    6 type  2   force =    -0.00008489    0.00014703    0.00067501
     atom    7 type  2   force =    -0.00008489   -0.00014703    0.00067501
     atom    8 type  2   force =    -0.00000000   -0.00000000   -0.00040899
     atom    9 type  2   force =    -0.00040070   -0.00000000   -0.00074420
     atom   10 type  2   force =     0.00020035   -0.00034701   -0.00074420
     atom   11 type  2   force =     0.00020035    0.00034701   -0.00074420

     Total force =     0.010120     Total SCF correction =     0.000004

     DFT-D3 dispersion Force =     0.002616


     Computing stress (Cartesian axis) and pressure

          total   stress  (Ry/bohr**3)                   (kbar)     P=        2.40
   0.00002183  -0.00000000   0.00000000            3.21       -0.00        0.00
  -0.00000000   0.00002183   0.00000000           -0.00        3.21        0.00
   0.00000000   0.00000000   0.00000523            0.00        0.00        0.77

     kinetic stress (kbar)   7194.37      0.00     -0.00
                                0.00   7194.37      0.00
                               -0.00      0.00   7183.25

     local   stress (kbar)-175810.41     -0.00     -0.00
                               -0.00-175810.41      0.00
                               -0.00      0.00 169428.45

     nonloc. stress (kbar)    354.63     -0.00     -0.00
                               -0.00    354.63      0.00
                                0.00      0.00    362.73

     hartree stress (kbar)  86828.29      0.00      0.00
                                0.00  86828.29      0.00
                                0.00      0.00 -82998.43

     exc-cor stress (kbar)  -1082.41      0.00      0.00
                                0.00  -1082.41     -0.00
                                0.00     -0.00  -1085.15

     corecor stress (kbar)      0.00      0.00      0.00
                                0.00      0.00      0.00
                                0.00      0.00      0.00

     ewald   stress (kbar)  82521.48     -0.00      0.00
                               -0.00  82521.48     -0.00
                                0.00     -0.00 -92889.71

     hubbard stress (kbar)      0.00      0.00      0.00
                                0.00      0.00      0.00
                                0.00      0.00      0.00

     DFT-D   stress (kbar)     -2.75     -0.00     -0.00
                               -0.00     -2.75     -0.00
                               -0.00     -0.00     -0.37

     XDM     stress (kbar)      0.00      0.00      0.00
                                0.00      0.00      0.00
                                0.00      0.00      0.00

     dft-nl  stress (kbar)      0.00      0.00      0.00
                                0.00      0.00      0.00
                                0.00      0.00      0.00

     TS-vdW  stress (kbar)      0.00      0.00      0.00
                                0.00      0.00      0.00
                                0.00      0.00      0.00

     MDB     stress (kbar)      0.00      0.00      0.00
                                0.00      0.00      0.00
                                0.00      0.00      0.00

     3D-RISM stress (kbar)      0.00      0.00      0.00
                                0.00      0.00      0.00
                                0.00      0.00      0.00


     Damped Dynamics Calculation

     Entering Dynamics:    iteration =     1

ATOMIC_POSITIONS (crystal)
Nb               0.1455804062       -0.1455804062       -0.1039286327
Nb               0.1455804062        0.2911608123       -0.1039286327
Nb              -0.2911608123       -0.1455804062       -0.1039286327
F                0.0000000000        0.0000000000       -0.1685845479
F                0.4930580629       -0.4930580629       -0.1492721305
F                0.4930580629       -0.0138838741       -0.1492721305
F                0.0138838741       -0.4930580629       -0.1492721305
F                0.3333333333       -0.3333333333       -0.0571845908
F               -0.1618092763        0.1618092763       -0.0486289353
F               -0.1618092763       -0.3236185527       -0.0486289353
F                0.3236185527        0.1618092763       -0.0486289353



     Writing config-only to output data dir ./out/Nb3F8.save/ :
     XML data file
     NEW-OLD atomic charge density approx. for the potential

     negative rho (up, down):  2.098E-05 0.000E+00

     total cpu time spent up to now is      151.6 secs

     per-process dynamical memory:   174.6 Mb

     Self-consistent Calculation

     iteration #  1     ecut=   100.00 Ry     beta= 0.70
     Davidson diagonalization with overlap

---- Real-time Memory Report at c_bands before calling an iterative solver
           279 MiB given to the printing process from OS
           170 MiB allocation reported by mallinfo(arena+hblkhd)
        327401 MiB available memory on the node where the printing process lives
------------------
     ethr =  1.00E-06,  avg # of iterations =  3.0

     Threshold (ethr) on eigenvalues was too large:
     Diagonalizing with lowered threshold

     Davidson diagonalization with overlap

---- Real-time Memory Report at c_bands before calling an iterative solver
           279 MiB given to the printing process from OS
           170 MiB allocation reported by mallinfo(arena+hblkhd)
        327189 MiB available memory on the node where the printing process lives
------------------
     ethr =  4.52E-09,  avg # of iterations =  8.3

     negative rho (up, down):  5.683E-06 0.000E+00

     total cpu time spent up to now is      154.0 secs

     total energy              =    -725.43016660 Ry
     estimated scf accuracy    <       0.00000395 Ry

     iteration #  2     ecut=   100.00 Ry     beta= 0.70
     Davidson diagonalization with overlap

---- Real-time Memory Report at c_bands before calling an iterative solver
           279 MiB given to the printing process from OS
           170 MiB allocation reported by mallinfo(arena+hblkhd)
        327188 MiB available memory on the node where the printing process lives
------------------
     ethr =  4.16E-09,  avg # of iterations =  6.6

     negative rho (up, down):  3.762E-06 0.000E+00

     total cpu time spent up to now is      154.5 secs

     total energy              =    -725.43016659 Ry
     estimated scf accuracy    <       0.00000543 Ry

     iteration #  3     ecut=   100.00 Ry     beta= 0.70
     Davidson diagonalization with overlap

---- Real-time Memory Report at c_bands before calling an iterative solver
           279 MiB given to the printing process from OS
           172 MiB allocation reported by mallinfo(arena+hblkhd)
        327084 MiB available memory on the node where the printing process lives
------------------
     ethr =  4.16E-09,  avg # of iterations =  5.0

     negative rho (up, down):  1.248E-06 0.000E+00

     total cpu time spent up to now is      155.0 secs

     total energy              =    -725.43016790 Ry
     estimated scf accuracy    <       0.00000047 Ry

     iteration #  4     ecut=   100.00 Ry     beta= 0.70
     Davidson diagonalization with overlap

---- Real-time Memory Report at c_bands before calling an iterative solver
           279 MiB given to the printing process from OS
           173 MiB allocation reported by mallinfo(arena+hblkhd)
        327062 MiB available memory on the node where the printing process lives
------------------
     ethr =  4.96E-10,  avg # of iterations =  5.1

     negative rho (up, down):  2.762E-07 0.000E+00

     total cpu time spent up to now is      155.6 secs

     total energy              =    -725.43016799 Ry
     estimated scf accuracy    <       0.00000002 Ry

     iteration #  5     ecut=   100.00 Ry     beta= 0.70
     Davidson diagonalization with overlap

---- Real-time Memory Report at c_bands before calling an iterative solver
           279 MiB given to the printing process from OS
           174 MiB allocation reported by mallinfo(arena+hblkhd)
        327047 MiB available memory on the node where the printing process lives
------------------
     ethr =  2.26E-11,  avg # of iterations =  7.1

     negative rho (up, down):  4.055E-08 0.000E+00

     total cpu time spent up to now is      156.2 secs

     total energy              =    -725.43016799 Ry
     estimated scf accuracy    <          5.6E-09 Ry

     iteration #  6     ecut=   100.00 Ry     beta= 0.70
     Davidson diagonalization with overlap

---- Real-time Memory Report at c_bands before calling an iterative solver
           279 MiB given to the printing process from OS
           175 MiB allocation reported by mallinfo(arena+hblkhd)
        327032 MiB available memory on the node where the printing process lives
------------------
     ethr =  5.91E-12,  avg # of iterations =  7.3

     total cpu time spent up to now is      156.8 secs

     total energy              =    -725.43016799 Ry
     estimated scf accuracy    <          3.1E-10 Ry

     iteration #  7     ecut=   100.00 Ry     beta= 0.70
     Davidson diagonalization with overlap

---- Real-time Memory Report at c_bands before calling an iterative solver
           279 MiB given to the printing process from OS
           176 MiB allocation reported by mallinfo(arena+hblkhd)
        327028 MiB available memory on the node where the printing process lives
------------------
     ethr =  3.24E-13,  avg # of iterations =  7.7

     total cpu time spent up to now is      157.4 secs

     total energy              =    -725.43016799 Ry
     estimated scf accuracy    <          1.3E-11 Ry

     iteration #  8     ecut=   100.00 Ry     beta= 0.70
     Davidson diagonalization with overlap

---- Real-time Memory Report at c_bands before calling an iterative solver
           279 MiB given to the printing process from OS
           177 MiB allocation reported by mallinfo(arena+hblkhd)
        327012 MiB available memory on the node where the printing process lives
------------------
     ethr =  1.00E-13,  avg # of iterations =  3.4

     total cpu time spent up to now is      157.9 secs

     total energy              =    -725.43016799 Ry
     estimated scf accuracy    <          6.1E-12 Ry

     iteration #  9     ecut=   100.00 Ry     beta= 0.70
     Davidson diagonalization with overlap

---- Real-time Memory Report at c_bands before calling an iterative solver
           279 MiB given to the printing process from OS
           178 MiB allocation reported by mallinfo(arena+hblkhd)
        326996 MiB available memory on the node where the printing process lives
------------------
     ethr =  1.00E-13,  avg # of iterations =  1.0

     total cpu time spent up to now is      158.6 secs

     End of self-consistent calculation

          k = 0.0000 0.0000 0.0000 ( 83541 PWs)   bands (ev):

   -58.4882 -58.2228 -58.2228 -35.6319 -35.0794 -35.0794 -34.9599 -34.4514
   -34.4514 -34.0236 -33.7991 -33.7991 -28.0563 -27.4683 -27.3903 -27.2472
   -27.2472 -26.6770 -26.5941 -26.5941 -10.5772 -10.5670 -10.5670 -10.2396
    -9.9029  -9.9029  -9.7784  -9.6878  -9.4725  -9.4725  -9.3042  -9.3042
    -9.2034  -8.6397  -8.6397  -8.6367  -8.4038  -8.3539  -8.3539  -8.2614
    -7.8822  -7.8822  -7.7443  -7.7443  -4.0855  -3.3575  -3.3575  -1.7587
    -0.6191  -0.6191  -0.1734   0.2781   0.2781   0.7027   1.1416   1.1416
     1.1631   1.4990

     occupation numbers 
     1.0000   1.0000   1.0000   1.0000   1.0000   1.0000   1.0000   1.0000
     1.0000   1.0000   1.0000   1.0000   1.0000   1.0000   1.0000   1.0000
     1.0000   1.0000   1.0000   1.0000   1.0000   1.0000   1.0000   1.0000
     1.0000   1.0000   1.0000   1.0000   1.0000   1.0000   1.0000   1.0000
     1.0000   1.0000   1.0000   1.0000   1.0000   1.0000   1.0000   1.0000
     1.0000   1.0000   1.0000   1.0000   1.0000   1.0000   1.0000   0.0000
     0.0000   0.0000   0.0000   0.0000   0.0000   0.0000   0.0000   0.0000
     0.0000   0.0000

          k =-0.0962 0.1667 0.0000 ( 83555 PWs)   bands (ev):

   -58.4849 -58.2264 -58.2229 -35.5890 -35.0705 -35.0431 -34.9447 -34.4733
   -34.4552 -34.0553 -33.8704 -33.8108 -28.0146 -27.4942 -27.3519 -27.2346
   -27.1984 -26.7007 -26.6322 -26.6102 -10.6050 -10.5047 -10.3777 -10.2881
   -10.0094  -9.9471  -9.6958  -9.6826  -9.4083  -9.3645  -9.3115  -9.2782
    -9.2104  -8.7566  -8.6737  -8.5727  -8.4545  -8.3642  -8.3433  -8.2852
    -7.9811  -7.9276  -7.7710  -7.7093  -4.1279  -3.3257  -3.3125  -1.8208
    -0.6184  -0.6127  -0.1141   0.1528   0.2275   0.8625   0.8850   1.0312
     1.2582   1.3698

     occupation numbers 
     1.0000   1.0000   1.0000   1.0000   1.0000   1.0000   1.0000   1.0000
     1.0000   1.0000   1.0000   1.0000   1.0000   1.0000   1.0000   1.0000
     1.0000   1.0000   1.0000   1.0000   1.0000   1.0000   1.0000   1.0000
     1.0000   1.0000   1.0000   1.0000   1.0000   1.0000   1.0000   1.0000
     1.0000   1.0000   1.0000   1.0000   1.0000   1.0000   1.0000   1.0000
     1.0000   1.0000   1.0000   1.0000   1.0000   1.0000   1.0000   0.0000
     0.0000   0.0000   0.0000   0.0000   0.0000   0.0000   0.0000   0.0000
     0.0000   0.0000

          k =-0.1925 0.3333 0.0000 ( 83585 PWs)   bands (ev):

   -58.4779 -58.2337 -58.2229 -35.4972 -35.0421 -34.9582 -34.9097 -34.5249
   -34.4678 -34.1326 -34.0255 -33.8275 -27.9155 -27.5643 -27.3033 -27.1464
   -27.0707 -26.8021 -26.7385 -26.6213 -10.6319 -10.4218 -10.2771 -10.0512
   -10.0322  -9.7882  -9.7023  -9.6576  -9.5196  -9.3823  -9.3562  -9.1464
    -9.1384  -8.8902  -8.7008  -8.6172  -8.4872  -8.4164  -8.3892  -8.2960
    -8.1256  -7.9938  -7.8243  -7.6683  -4.2168  -3.2559  -3.2175  -1.9500
    -0.6233  -0.6068  -0.1313   0.0414   0.0695   0.6017   0.6408   1.1612
     1.2702   1.6584

     occupation numbers 
     1.0000   1.0000   1.0000   1.0000   1.0000   1.0000   1.0000   1.0000
     1.0000   1.0000   1.0000   1.0000   1.0000   1.0000   1.0000   1.0000
     1.0000   1.0000   1.0000   1.0000   1.0000   1.0000   1.0000   1.0000
     1.0000   1.0000   1.0000   1.0000   1.0000   1.0000   1.0000   1.0000
     1.0000   1.0000   1.0000   1.0000   1.0000   1.0000   1.0000   1.0000
     1.0000   1.0000   1.0000   1.0000   1.0000   1.0000   1.0000   0.1614
     0.0000   0.0000   0.0000   0.0000   0.0000   0.0000   0.0000   0.0000
     0.0000   0.0000

          k = 0.2887-0.5000 0.0000 ( 83612 PWs)   bands (ev):

   -58.4743 -58.2376 -58.2229 -35.4487 -35.0176 -34.9058 -34.8889 -34.5578
   -34.4797 -34.1780 -34.1116 -33.8333 -27.8465 -27.6196 -27.2952 -27.0088
   -26.9388 -26.9347 -26.8598 -26.6221 -10.6890 -10.4268 -10.0413  -9.9459
    -9.8440  -9.8343  -9.8149  -9.6457  -9.4674  -9.4644  -9.3117  -9.1962
    -9.0884  -9.0734  -8.6692  -8.6457  -8.5118  -8.4383  -8.4344  -8.2757
    -8.1444  -8.0247  -7.8647  -7.6536  -4.2634  -3.2169  -3.1665  -2.0177
    -0.6515  -0.5988  -0.2492  -0.0268   0.1160   0.4417   0.5731   1.0858
     1.2682   1.8249

     occupation numbers 
     1.0000   1.0000   1.0000   1.0000   1.0000   1.0000   1.0000   1.0000
     1.0000   1.0000   1.0000   1.0000   1.0000   1.0000   1.0000   1.0000
     1.0000   1.0000   1.0000   1.0000   1.0000   1.0000   1.0000   1.0000
     1.0000   1.0000   1.0000   1.0000   1.0000   1.0000   1.0000   1.0000
     1.0000   1.0000   1.0000   1.0000   1.0000   1.0000   1.0000   1.0000
     1.0000   1.0000   1.0000   1.0000   1.0000   1.0000   1.0000   0.9990
     0.0000   0.0000   0.0000   0.0000   0.0000   0.0000   0.0000   0.0000
     0.0000   0.0000

          k =-0.0000 0.3333 0.0000 ( 83628 PWs)   bands (ev):

   -58.4797 -58.2319 -58.2229 -35.5193 -35.0532 -34.9838 -34.9188 -34.5095
   -34.4638 -34.1156 -33.9632 -33.8403 -27.9432 -27.5436 -27.2879 -27.2182
   -27.0965 -26.7794 -26.6571 -26.6548 -10.6094 -10.4022 -10.3169 -10.1726
   -10.0664  -9.8763  -9.7482  -9.5197  -9.4461  -9.3509  -9.3428  -9.2516
    -9.1476  -8.8064  -8.7557  -8.5620  -8.5050  -8.4114  -8.3556  -8.2676
    -8.1787  -7.9497  -7.7626  -7.7135  -4.1930  -3.2834  -3.2338  -1.9164
    -0.6329  -0.5947  -0.0748   0.0205   0.1442   0.6308   0.7661   1.0298
     1.3405   1.5372

     occupation numbers 
     1.0000   1.0000   1.0000   1.0000   1.0000   1.0000   1.0000   1.0000
     1.0000   1.0000   1.0000   1.0000   1.0000   1.0000   1.0000   1.0000
     1.0000   1.0000   1.0000   1.0000   1.0000   1.0000   1.0000   1.0000
     1.0000   1.0000   1.0000   1.0000   1.0000   1.0000   1.0000   1.0000
     1.0000   1.0000   1.0000   1.0000   1.0000   1.0000   1.0000   1.0000
     1.0000   1.0000   1.0000   1.0000   1.0000   1.0000   1.0000   0.0199
     0.0000   0.0000   0.0000   0.0000   0.0000   0.0000   0.0000   0.0000
     0.0000   0.0000

          k =-0.0962 0.5000 0.0000 ( 83565 PWs)   bands (ev):

   -58.4743 -58.2376 -58.2229 -35.4408 -35.0192 -34.9308 -34.8893 -34.5458
   -34.4820 -34.1755 -34.0707 -33.8678 -27.8458 -27.6198 -27.2464 -27.1168
   -26.9711 -26.9010 -26.7651 -26.6590 -10.6571 -10.3717 -10.2002 -10.0444
    -9.9129  -9.8266  -9.7047  -9.4909  -9.4768  -9.3862  -9.3469  -9.2034
    -9.1444  -8.9647  -8.7116  -8.6634  -8.5806  -8.4699  -8.3678  -8.3363
    -8.1846  -7.9396  -7.8253  -7.7016  -4.2592  -3.2403  -3.1478  -2.0153
    -0.6690  -0.5811  -0.1737   0.0034   0.1358   0.4334   0.5292   0.9338
     1.4311   1.6927

     occupation numbers 
     1.0000   1.0000   1.0000   1.0000   1.0000   1.0000   1.0000   1.0000
     1.0000   1.0000   1.0000   1.0000   1.0000   1.0000   1.0000   1.0000
     1.0000   1.0000   1.0000   1.0000   1.0000   1.0000   1.0000   1.0000
     1.0000   1.0000   1.0000   1.0000   1.0000   1.0000   1.0000   1.0000
     1.0000   1.0000   1.0000   1.0000   1.0000   1.0000   1.0000   1.0000
     1.0000   1.0000   1.0000   1.0000   1.0000   1.0000   1.0000   0.9794
     0.0000   0.0000   0.0000   0.0000   0.0000   0.0000   0.0000   0.0000
     0.0000   0.0000

          k =-0.0000 0.6667 0.0000 ( 83670 PWs)   bands (ev):

   -58.4724 -58.2395 -58.2230 -35.4043 -34.9847 -34.9605 -34.8802 -34.5408
   -34.4971 -34.1735 -34.0882 -33.9109 -27.7908 -27.6676 -27.1141 -27.1129
   -27.1106 -26.8125 -26.7560 -26.7420 -10.6355 -10.3632 -10.2326  -9.9983
    -9.9433  -9.8244  -9.5458  -9.5029  -9.4805  -9.3037  -9.2819  -9.1835
    -9.1752  -9.0324  -8.7948  -8.6747  -8.6390  -8.5603  -8.4182  -8.3139
    -8.1618  -7.8483  -7.8134  -7.7863  -4.2779  -3.2385  -3.1085  -2.0472
    -0.6933  -0.5695  -0.0843  -0.0410   0.2434   0.2925   0.3938   0.8362
     1.5644   1.7173

     occupation numbers 
     1.0000   1.0000   1.0000   1.0000   1.0000   1.0000   1.0000   1.0000
     1.0000   1.0000   1.0000   1.0000   1.0000   1.0000   1.0000   1.0000
     1.0000   1.0000   1.0000   1.0000   1.0000   1.0000   1.0000   1.0000
     1.0000   1.0000   1.0000   1.0000   1.0000   1.0000   1.0000   1.0000
     1.0000   1.0000   1.0000   1.0000   1.0000   1.0000   1.0000   1.0000
     1.0000   1.0000   1.0000   1.0000   1.0000   1.0000   1.0000   1.0814
     0.0000   0.0000   0.0000   0.0000   0.0000   0.0000   0.0000   0.0000
     0.0000   0.0000

     the Fermi energy is    -1.9718 ev

!    total energy              =    -725.43016799 Ry
     estimated scf accuracy    <          1.9E-13 Ry
     smearing contrib. (-TS)   =       0.00008834 Ry
     internal energy E=F+TS    =    -725.43025634 Ry

     convergence has been achieved in   9 iterations

     Forces acting on atoms (cartesian axes, Ry/au):

     atom    1 type  1   force =    -0.00091543    0.00000000   -0.00230062
     atom    2 type  1   force =     0.00045772   -0.00079279   -0.00230062
     atom    3 type  1   force =     0.00045772    0.00079279   -0.00230062
     atom    4 type  2   force =     0.00000000    0.00000000   -0.00083811
     atom    5 type  2   force =     0.00004726   -0.00000000   -0.00029196
     atom    6 type  2   force =    -0.00002363    0.00004093   -0.00029196
     atom    7 type  2   force =    -0.00002363   -0.00004093   -0.00029196
     atom    8 type  2   force =     0.00000000    0.00000000    0.00235723
     atom    9 type  2   force =     0.00177992   -0.00000000    0.00208621
     atom   10 type  2   force =    -0.00088996    0.00154146    0.00208621
     atom   11 type  2   force =    -0.00088996   -0.00154146    0.00208621
     The non-local contrib.  to forces
     atom    1 type  1   force =    -0.37166520    0.00000000   -0.05471090
     atom    2 type  1   force =     0.18583260   -0.32187151   -0.05471090
     atom    3 type  1   force =     0.18583260    0.32187151   -0.05471090
     atom    4 type  2   force =     0.00000000    0.00000000    1.51175498
     atom    5 type  2   force =    -0.58652254    0.00000000    0.96356698
     atom    6 type  2   force =     0.29326127   -0.50794342    0.96356698
     atom    7 type  2   force =     0.29326127    0.50794342    0.96356698
     atom    8 type  2   force =    -0.00000000    0.00000000   -1.05394124
     atom    9 type  2   force =     0.78604703   -0.00000000   -1.19324545
     atom   10 type  2   force =    -0.39302352    0.68073670   -1.19324545
     atom   11 type  2   force =    -0.39302352   -0.68073670   -1.19324545
     The ionic contribution  to forces
     atom    1 type  1   force =     7.17267421    0.00000000   -1.55402617
     atom    2 type  1   force =    -3.58633711    6.21171809   -1.55402617
     atom    3 type  1   force =    -3.58633711   -6.21171809   -1.55402617
     atom    4 type  2   force =    -0.00000000    0.00000000  -54.06753360
     atom    5 type  2   force =     6.66699138    0.00000000  -38.27821692
     atom    6 type  2   force =    -3.33349569    5.77378391  -38.27821692
     atom    7 type  2   force =    -3.33349569   -5.77378391  -38.27821692
     atom    8 type  2   force =     0.00000001   -0.00000000   40.00102207
     atom    9 type  2   force =    -9.03400727    0.00000000   44.52108026
     atom   10 type  2   force =     4.51700363   -7.82367979   44.52108027
     atom   11 type  2   force =     4.51700363    7.82367979   44.52108027
     The local contribution  to forces
     atom    1 type  1   force =    -6.80096318   -0.00000000    1.60646038
     atom    2 type  1   force =     3.40048154   -5.88980686    1.60646038
     atom    3 type  1   force =     3.40048154    5.88980686    1.60646038
     atom    4 type  2   force =     0.00000000    0.00000000   52.55441918
     atom    5 type  2   force =    -6.08059064   -0.00000000   37.31372400
     atom    6 type  2   force =     3.04029532   -5.26594596   37.31372400
     atom    7 type  2   force =     3.04029532    5.26594596   37.31372400
     atom    8 type  2   force =     0.00000004   -0.00000000  -38.94427351
     atom    9 type  2   force =     8.25014074   -0.00000000  -43.32496341
     atom   10 type  2   force =    -4.12507037    7.14483147  -43.32496341
     atom   11 type  2   force =    -4.12507037   -7.14483147  -43.32496341
     The core correction contribution to forces
     atom    1 type  1   force =     0.00000000    0.00000000    0.00000000
     atom    2 type  1   force =     0.00000000    0.00000000    0.00000000
     atom    3 type  1   force =     0.00000000    0.00000000    0.00000000
     atom    4 type  2   force =     0.00000000    0.00000000    0.00000000
     atom    5 type  2   force =     0.00000000    0.00000000    0.00000000
     atom    6 type  2   force =     0.00000000    0.00000000    0.00000000
     atom    7 type  2   force =     0.00000000    0.00000000    0.00000000
     atom    8 type  2   force =     0.00000000    0.00000000    0.00000000
     atom    9 type  2   force =     0.00000000    0.00000000    0.00000000
     atom   10 type  2   force =     0.00000000    0.00000000    0.00000000
     atom   11 type  2   force =     0.00000000    0.00000000    0.00000000
     The Hubbard contrib.    to forces
     atom    1 type  1   force =     0.00000000    0.00000000    0.00000000
     atom    2 type  1   force =     0.00000000    0.00000000    0.00000000
     atom    3 type  1   force =     0.00000000    0.00000000    0.00000000
     atom    4 type  2   force =     0.00000000    0.00000000    0.00000000
     atom    5 type  2   force =     0.00000000    0.00000000    0.00000000
     atom    6 type  2   force =     0.00000000    0.00000000    0.00000000
     atom    7 type  2   force =     0.00000000    0.00000000    0.00000000
     atom    8 type  2   force =     0.00000000    0.00000000    0.00000000
     atom    9 type  2   force =     0.00000000    0.00000000    0.00000000
     atom   10 type  2   force =     0.00000000    0.00000000    0.00000000
     atom   11 type  2   force =     0.00000000    0.00000000    0.00000000
     The SCF correction term to forces
     atom    1 type  1   force =     0.00000044    0.00000000   -0.00000127
     atom    2 type  1   force =    -0.00000022    0.00000038   -0.00000127
     atom    3 type  1   force =    -0.00000022   -0.00000038   -0.00000127
     atom    4 type  2   force =    -0.00000000   -0.00000000    0.00000002
     atom    5 type  2   force =    -0.00000018   -0.00000000    0.00000007
     atom    6 type  2   force =     0.00000009   -0.00000016    0.00000007
     atom    7 type  2   force =     0.00000009    0.00000016    0.00000007
     atom    8 type  2   force =     0.00000000    0.00000000   -0.00000038
     atom    9 type  2   force =    -0.00000007    0.00000000   -0.00000045
     atom   10 type  2   force =     0.00000004   -0.00000006   -0.00000045
     atom   11 type  2   force =     0.00000004    0.00000006   -0.00000045

     DFT-D3 dispersion contribution to forces:
     atom    1 type  1   force =    -0.00096174    0.00000000    0.00001815
     atom    2 type  1   force =     0.00048087   -0.00083289    0.00001815
     atom    3 type  1   force =     0.00048087    0.00083289    0.00001815
     atom    4 type  2   force =    -0.00000000   -0.00000000    0.00056212
     atom    5 type  2   force =     0.00016924    0.00000000    0.00067472
     atom    6 type  2   force =    -0.00008462    0.00014657    0.00067472
     atom    7 type  2   force =    -0.00008462   -0.00014657    0.00067472
     atom    8 type  2   force =    -0.00000000    0.00000000   -0.00040891
     atom    9 type  2   force =    -0.00040051   -0.00000000   -0.00074394
     atom   10 type  2   force =     0.00020026   -0.00034685   -0.00074394
     atom   11 type  2   force =     0.00020026    0.00034685   -0.00074394

     Total force =     0.006890     Total SCF correction =     0.000003

     DFT-D3 dispersion Force =     0.002618


     Computing stress (Cartesian axis) and pressure

          total   stress  (Ry/bohr**3)                   (kbar)     P=        2.35
   0.00002184   0.00000000   0.00000000            3.21        0.00        0.00
  -0.00000000   0.00002184   0.00000000           -0.00        3.21        0.00
   0.00000000   0.00000000   0.00000432            0.00        0.00        0.64

     kinetic stress (kbar)   7194.38      0.00      0.00
                               -0.00   7194.38      0.00
                                0.00      0.00   7182.95

     local   stress (kbar)-175795.07     -0.00     -0.00
                               -0.00-175795.07      0.00
                               -0.00      0.00 169410.20

     nonloc. stress (kbar)    354.65     -0.00      0.00
                               -0.00    354.65      0.00
                               -0.00      0.00    362.80

     hartree stress (kbar)  86820.87      0.00     -0.00
                                0.00  86820.87      0.00
                               -0.00      0.00 -82989.86

     exc-cor stress (kbar)  -1082.40      0.00      0.00
                                0.00  -1082.40      0.00
                                0.00      0.00  -1085.14

     corecor stress (kbar)      0.00      0.00      0.00
                                0.00      0.00      0.00
                                0.00      0.00      0.00

     ewald   stress (kbar)  82513.53      0.00      0.00
                                0.00  82513.53     -0.00
                                0.00     -0.00 -92879.94

     hubbard stress (kbar)      0.00      0.00      0.00
                                0.00      0.00      0.00
                                0.00      0.00      0.00

     DFT-D   stress (kbar)     -2.75     -0.00     -0.00
                               -0.00     -2.75      0.00
                               -0.00      0.00     -0.37

     XDM     stress (kbar)      0.00      0.00      0.00
                                0.00      0.00      0.00
                                0.00      0.00      0.00

     dft-nl  stress (kbar)      0.00      0.00      0.00
                                0.00      0.00      0.00
                                0.00      0.00      0.00

     TS-vdW  stress (kbar)      0.00      0.00      0.00
                                0.00      0.00      0.00
                                0.00      0.00      0.00

     MDB     stress (kbar)      0.00      0.00      0.00
                                0.00      0.00      0.00
                                0.00      0.00      0.00

     3D-RISM stress (kbar)      0.00      0.00      0.00
                                0.00      0.00      0.00
                                0.00      0.00      0.00


     Entering Dynamics:    iteration =     2

     <vel(dt)|acc(dt)> =   0.89429277

ATOMIC_POSITIONS (crystal)
Nb               0.1455309889       -0.1455309889       -0.1039883704
Nb               0.1455309889        0.2910619778       -0.1039883704
Nb              -0.2910619778       -0.1455309889       -0.1039883704
F               -0.0000000000        0.0000000000       -0.1686222997
F                0.4930655247       -0.4930655247       -0.1492860310
F                0.4930655247       -0.0138689506       -0.1492860310
F                0.0138689506       -0.4930655247       -0.1492860310
F                0.3333333333       -0.3333333333       -0.0571121676
F               -0.1616500288        0.1616500288       -0.0485668543
F               -0.1616500288       -0.3233000576       -0.0485668543
F                0.3233000576        0.1616500288       -0.0485668543



     Writing config-only to output data dir ./out/Nb3F8.save/ :
     XML data file

     first order wave-functions extrapolation
     NEW-OLD atomic charge density approx. for the potential

     negative rho (up, down):  3.280E-05 0.000E+00

     total cpu time spent up to now is      193.0 secs

     per-process dynamical memory:   183.2 Mb

     Self-consistent Calculation

     iteration #  1     ecut=   100.00 Ry     beta= 0.70
     Davidson diagonalization with overlap

---- Real-time Memory Report at c_bands before calling an iterative solver
           279 MiB given to the printing process from OS
           178 MiB allocation reported by mallinfo(arena+hblkhd)
        325449 MiB available memory on the node where the printing process lives
------------------
     ethr =  1.00E-06,  avg # of iterations =  3.0

     Threshold (ethr) on eigenvalues was too large:
     Diagonalizing with lowered threshold

     Davidson diagonalization with overlap

---- Real-time Memory Report at c_bands before calling an iterative solver
           279 MiB given to the printing process from OS
           178 MiB allocation reported by mallinfo(arena+hblkhd)
        325450 MiB available memory on the node where the printing process lives
------------------
     ethr =  1.10E-08,  avg # of iterations =  6.1

     negative rho (up, down):  8.913E-06 0.000E+00

     total cpu time spent up to now is      194.4 secs

     total energy              =    -725.43021415 Ry
     estimated scf accuracy    <       0.00000996 Ry

     iteration #  2     ecut=   100.00 Ry     beta= 0.70
     Davidson diagonalization with overlap

---- Real-time Memory Report at c_bands before calling an iterative solver
           279 MiB given to the printing process from OS
           178 MiB allocation reported by mallinfo(arena+hblkhd)
        325449 MiB available memory on the node where the printing process lives
------------------
     ethr =  1.05E-08,  avg # of iterations =  6.3

     negative rho (up, down):  5.710E-06 0.000E+00

     total cpu time spent up to now is      195.0 secs

     total energy              =    -725.43021415 Ry
     estimated scf accuracy    <       0.00001126 Ry

     iteration #  3     ecut=   100.00 Ry     beta= 0.70
     Davidson diagonalization with overlap

---- Real-time Memory Report at c_bands before calling an iterative solver
           279 MiB given to the printing process from OS
           178 MiB allocation reported by mallinfo(arena+hblkhd)
        325450 MiB available memory on the node where the printing process lives
------------------
     ethr =  1.05E-08,  avg # of iterations =  5.0

     negative rho (up, down):  1.936E-06 0.000E+00

     total cpu time spent up to now is      195.5 secs

     total energy              =    -725.43021699 Ry
     estimated scf accuracy    <       0.00000157 Ry

     iteration #  4     ecut=   100.00 Ry     beta= 0.70
     Davidson diagonalization with overlap

---- Real-time Memory Report at c_bands before calling an iterative solver
           279 MiB given to the printing process from OS
           178 MiB allocation reported by mallinfo(arena+hblkhd)
        325451 MiB available memory on the node where the printing process lives
------------------
     ethr =  1.65E-09,  avg # of iterations =  4.1

     negative rho (up, down):  4.098E-07 0.000E+00

     total cpu time spent up to now is      195.9 secs

     total energy              =    -725.43021728 Ry
     estimated scf accuracy    <       0.00000005 Ry

     iteration #  5     ecut=   100.00 Ry     beta= 0.70
     Davidson diagonalization with overlap

---- Real-time Memory Report at c_bands before calling an iterative solver
           279 MiB given to the printing process from OS
           178 MiB allocation reported by mallinfo(arena+hblkhd)
        325454 MiB available memory on the node where the printing process lives
------------------
     ethr =  5.77E-11,  avg # of iterations =  9.3

     negative rho (up, down):  8.148E-08 0.000E+00

     total cpu time spent up to now is      196.6 secs

     total energy              =    -725.43021730 Ry
     estimated scf accuracy    <       0.00000002 Ry

     iteration #  6     ecut=   100.00 Ry     beta= 0.70
     Davidson diagonalization with overlap

---- Real-time Memory Report at c_bands before calling an iterative solver
           279 MiB given to the printing process from OS
           178 MiB allocation reported by mallinfo(arena+hblkhd)
        325456 MiB available memory on the node where the printing process lives
------------------
     ethr =  1.78E-11,  avg # of iterations =  5.9

     total cpu time spent up to now is      197.2 secs

     total energy              =    -725.43021730 Ry
     estimated scf accuracy    <          7.2E-10 Ry

     iteration #  7     ecut=   100.00 Ry     beta= 0.70
     Davidson diagonalization with overlap

---- Real-time Memory Report at c_bands before calling an iterative solver
           279 MiB given to the printing process from OS
           178 MiB allocation reported by mallinfo(arena+hblkhd)
        325447 MiB available memory on the node where the printing process lives
------------------
     ethr =  7.62E-13,  avg # of iterations =  9.1

     total cpu time spent up to now is      197.8 secs

     total energy              =    -725.43021730 Ry
     estimated scf accuracy    <          6.5E-11 Ry

     iteration #  8     ecut=   100.00 Ry     beta= 0.70
     Davidson diagonalization with overlap

---- Real-time Memory Report at c_bands before calling an iterative solver
           279 MiB given to the printing process from OS
           178 MiB allocation reported by mallinfo(arena+hblkhd)
        325448 MiB available memory on the node where the printing process lives
------------------
     ethr =  1.00E-13,  avg # of iterations =  5.6

     total cpu time spent up to now is      198.4 secs

     total energy              =    -725.43021730 Ry
     estimated scf accuracy    <          2.8E-11 Ry

     iteration #  9     ecut=   100.00 Ry     beta= 0.70
     Davidson diagonalization with overlap

---- Real-time Memory Report at c_bands before calling an iterative solver
           279 MiB given to the printing process from OS
           178 MiB allocation reported by mallinfo(arena+hblkhd)
        325449 MiB available memory on the node where the printing process lives
------------------
     ethr =  1.00E-13,  avg # of iterations =  1.4

     total cpu time spent up to now is      198.8 secs

     End of self-consistent calculation

          k = 0.0000 0.0000 0.0000 ( 83541 PWs)   bands (ev):

   -58.4939 -58.2278 -58.2278 -35.6381 -35.0833 -35.0833 -34.9652 -34.4562
   -34.4562 -34.0273 -33.8029 -33.8029 -28.0563 -27.4651 -27.3916 -27.2475
   -27.2475 -26.6793 -26.5969 -26.5969 -10.5776 -10.5650 -10.5650 -10.2442
    -9.9007  -9.9007  -9.7783  -9.6889  -9.4706  -9.4706  -9.3096  -9.3096
    -9.2017  -8.6367  -8.6367  -8.6355  -8.4026  -8.3577  -8.3577  -8.2647
    -7.8736  -7.8736  -7.7529  -7.7529  -4.0934  -3.3636  -3.3636  -1.7674
    -0.6235  -0.6235  -0.1805   0.2762   0.2762   0.6975   1.1317   1.1317
     1.1566   1.4889

     occupation numbers 
     1.0000   1.0000   1.0000   1.0000   1.0000   1.0000   1.0000   1.0000
     1.0000   1.0000   1.0000   1.0000   1.0000   1.0000   1.0000   1.0000
     1.0000   1.0000   1.0000   1.0000   1.0000   1.0000   1.0000   1.0000
     1.0000   1.0000   1.0000   1.0000   1.0000   1.0000   1.0000   1.0000
     1.0000   1.0000   1.0000   1.0000   1.0000   1.0000   1.0000   1.0000
     1.0000   1.0000   1.0000   1.0000   1.0000   1.0000   1.0000   0.0000
     0.0000   0.0000   0.0000   0.0000   0.0000   0.0000   0.0000   0.0000
     0.0000   0.0000

          k =-0.0962 0.1667 0.0000 ( 83555 PWs)   bands (ev):

   -58.4906 -58.2313 -58.2278 -35.5953 -35.0744 -35.0470 -34.9500 -34.4781
   -34.4600 -34.0590 -33.8739 -33.8147 -28.0153 -27.4908 -27.3528 -27.2348
   -27.1985 -26.7032 -26.6350 -26.6129 -10.6032 -10.5031 -10.3791 -10.2903
   -10.0080  -9.9455  -9.6959  -9.6825  -9.4121  -9.3632  -9.3132  -9.2828
    -9.2052  -8.7557  -8.6710  -8.5710  -8.4530  -8.3674  -8.3465  -8.2879
    -7.9781  -7.9233  -7.7754  -7.7140  -4.1356  -3.3319  -3.3192  -1.8300
    -0.6223  -0.6168  -0.1219   0.1506   0.2253   0.8556   0.8773   1.0253
     1.2508   1.3590

     occupation numbers 
     1.0000   1.0000   1.0000   1.0000   1.0000   1.0000   1.0000   1.0000
     1.0000   1.0000   1.0000   1.0000   1.0000   1.0000   1.0000   1.0000
     1.0000   1.0000   1.0000   1.0000   1.0000   1.0000   1.0000   1.0000
     1.0000   1.0000   1.0000   1.0000   1.0000   1.0000   1.0000   1.0000
     1.0000   1.0000   1.0000   1.0000   1.0000   1.0000   1.0000   1.0000
     1.0000   1.0000   1.0000   1.0000   1.0000   1.0000   1.0000   0.0000
     0.0000   0.0000   0.0000   0.0000   0.0000   0.0000   0.0000   0.0000
     0.0000   0.0000

          k =-0.1925 0.3333 0.0000 ( 83585 PWs)   bands (ev):

   -58.4837 -58.2386 -58.2278 -35.5038 -35.0461 -34.9620 -34.9153 -34.5296
   -34.4726 -34.1364 -34.0282 -33.8313 -27.9187 -27.5589 -27.3038 -27.1462
   -27.0704 -26.8051 -26.7418 -26.6240 -10.6304 -10.4212 -10.2790 -10.0510
   -10.0311  -9.7909  -9.7012  -9.6556  -9.5241  -9.3870  -9.3536  -9.1424
    -9.1324  -8.8904  -8.7008  -8.6180  -8.4848  -8.4182  -8.3923  -8.2972
    -8.1277  -7.9920  -7.8264  -7.6712  -4.2242  -3.2624  -3.2257  -1.9601
    -0.6266  -0.6100  -0.1383   0.0375   0.0664   0.5951   0.6350   1.1495
     1.2631   1.6547

     occupation numbers 
     1.0000   1.0000   1.0000   1.0000   1.0000   1.0000   1.0000   1.0000
     1.0000   1.0000   1.0000   1.0000   1.0000   1.0000   1.0000   1.0000
     1.0000   1.0000   1.0000   1.0000   1.0000   1.0000   1.0000   1.0000
     1.0000   1.0000   1.0000   1.0000   1.0000   1.0000   1.0000   1.0000
     1.0000   1.0000   1.0000   1.0000   1.0000   1.0000   1.0000   1.0000
     1.0000   1.0000   1.0000   1.0000   1.0000   1.0000   1.0000   0.1596
     0.0000   0.0000   0.0000   0.0000   0.0000   0.0000   0.0000   0.0000
     0.0000   0.0000

          k = 0.2887-0.5000 0.0000 ( 83612 PWs)   bands (ev):

   -58.4801 -58.2425 -58.2279 -35.4556 -35.0217 -34.9096 -34.8946 -34.5625
   -34.4845 -34.1818 -34.1139 -33.8372 -27.8531 -27.6110 -27.2955 -27.0030
   -26.9433 -26.9329 -26.8686 -26.6247 -10.6879 -10.4265 -10.0403  -9.9476
    -9.8491  -9.8415  -9.8075  -9.6450  -9.4715  -9.4602  -9.3099  -9.1927
    -9.0828  -9.0728  -8.6700  -8.6475  -8.5107  -8.4412  -8.4359  -8.2760
    -8.1477  -8.0233  -7.8664  -7.6562  -4.2706  -3.2236  -3.1756  -2.0281
    -0.6541  -0.6019  -0.2550  -0.0304   0.1112   0.4348   0.5681   1.0743
     1.2611   1.8152

     occupation numbers 
     1.0000   1.0000   1.0000   1.0000   1.0000   1.0000   1.0000   1.0000
     1.0000   1.0000   1.0000   1.0000   1.0000   1.0000   1.0000   1.0000
     1.0000   1.0000   1.0000   1.0000   1.0000   1.0000   1.0000   1.0000
     1.0000   1.0000   1.0000   1.0000   1.0000   1.0000   1.0000   1.0000
     1.0000   1.0000   1.0000   1.0000   1.0000   1.0000   1.0000   1.0000
     1.0000   1.0000   1.0000   1.0000   1.0000   1.0000   1.0000   1.0002
     0.0000   0.0000   0.0000   0.0000   0.0000   0.0000   0.0000   0.0000
     0.0000   0.0000

          k =-0.0000 0.3333 0.0000 ( 83628 PWs)   bands (ev):

   -58.4854 -58.2368 -58.2278 -35.5259 -35.0571 -34.9877 -34.9243 -34.5142
   -34.4686 -34.1192 -33.9662 -33.8441 -27.9455 -27.5389 -27.2885 -27.2183
   -27.0962 -26.7824 -26.6599 -26.6575 -10.6073 -10.4026 -10.3197 -10.1707
   -10.0636  -9.8799  -9.7456  -9.5238  -9.4492  -9.3495  -9.3459  -9.2477
    -9.1423  -8.8066  -8.7542  -8.5619  -8.5032  -8.4124  -8.3585  -8.2698
    -8.1795  -7.9486  -7.7621  -7.7190  -4.2005  -3.2899  -3.2415  -1.9262
    -0.6363  -0.5984  -0.0828   0.0176   0.1414   0.6237   0.7600   1.0212
     1.3339   1.5276

     occupation numbers 
[...]
     1.0000   1.0000   1.0000   1.0000   1.0000   1.0000   1.0000   1.0000
     1.0000   1.0000   1.0000   1.0000   1.0000   1.0000   1.0000   1.0000
     1.0000   1.0000   1.0000   1.0000   1.0000   1.0000   1.0000   1.0000
     1.0000   1.0000   1.0000   1.0000   1.0000   1.0000   1.0000   1.0000
     1.0000   1.0000   1.0000   1.0000   1.0000   1.0000   1.0000   0.1551
     0.0000   0.0000   0.0000   0.0000   0.0000   0.0000   0.0000   0.0000
     0.0000   0.0000

          k = 0.2887-0.5000 0.0000 ( 83612 PWs)   bands (ev):

   -58.4933 -58.2555 -58.2409 -35.4711 -35.0332 -34.9214 -34.9080 -34.5756
   -34.4977 -34.1924 -34.1248 -33.8498 -27.8484 -27.6112 -27.3086 -27.0169
   -26.9533 -26.9487 -26.8784 -26.6367 -10.6860 -10.4283 -10.0447  -9.9549
    -9.8602  -9.8398  -9.8083  -9.6475  -9.4815  -9.4673  -9.3267  -9.2041
    -9.1040  -9.0762  -8.6780  -8.6628  -8.5212  -8.4499  -8.4384  -8.2889
    -8.1616  -8.0319  -7.8785  -7.6664  -4.2770  -3.2416  -3.1915  -2.0492
    -0.6634  -0.6204  -0.2614  -0.0464   0.0926   0.4175   0.5495   1.0640
     1.2476   1.8005

     occupation numbers 
     1.0000   1.0000   1.0000   1.0000   1.0000   1.0000   1.0000   1.0000
     1.0000   1.0000   1.0000   1.0000   1.0000   1.0000   1.0000   1.0000
     1.0000   1.0000   1.0000   1.0000   1.0000   1.0000   1.0000   1.0000
     1.0000   1.0000   1.0000   1.0000   1.0000   1.0000   1.0000   1.0000
     1.0000   1.0000   1.0000   1.0000   1.0000   1.0000   1.0000   1.0000
     1.0000   1.0000   1.0000   1.0000   1.0000   1.0000   1.0000   1.0011
     0.0000   0.0000   0.0000   0.0000   0.0000   0.0000   0.0000   0.0000
     0.0000   0.0000

          k =-0.0000 0.3333 0.0000 ( 83628 PWs)   bands (ev):

   -58.4986 -58.2498 -58.2409 -35.5411 -35.0684 -34.9992 -34.9375 -34.5274
   -34.4819 -34.1300 -33.9779 -33.8568 -27.9405 -27.5393 -27.3018 -27.2307
   -27.1093 -26.7942 -26.6715 -26.6696 -10.6034 -10.4047 -10.3284 -10.1737
   -10.0692  -9.8909  -9.7526  -9.5285  -9.4518  -9.3642  -9.3502  -9.2576
    -9.1494  -8.8243  -8.7691  -8.5770  -8.5085  -8.4200  -8.3692  -8.2817
    -8.1860  -7.9585  -7.7716  -7.7292  -4.2087  -3.3084  -3.2595  -1.9464
    -0.6469  -0.6122  -0.0985   0.0041   0.1349   0.6022   0.7458   1.0067
     1.3288   1.5143

     occupation numbers 
     1.0000   1.0000   1.0000   1.0000   1.0000   1.0000   1.0000   1.0000
     1.0000   1.0000   1.0000   1.0000   1.0000   1.0000   1.0000   1.0000
     1.0000   1.0000   1.0000   1.0000   1.0000   1.0000   1.0000   1.0000
     1.0000   1.0000   1.0000   1.0000   1.0000   1.0000   1.0000   1.0000
     1.0000   1.0000   1.0000   1.0000   1.0000   1.0000   1.0000   1.0000
     1.0000   1.0000   1.0000   1.0000   1.0000   1.0000   1.0000   0.0182
     0.0000   0.0000   0.0000   0.0000   0.0000   0.0000   0.0000   0.0000
     0.0000   0.0000

          k =-0.0962 0.5000 0.0000 ( 83565 PWs)   bands (ev):

   -58.4933 -58.2555 -58.2409 -35.4635 -35.0346 -34.9463 -34.9083 -34.5634
   -34.5002 -34.1896 -34.0843 -33.8843 -27.8477 -27.6114 -27.2599 -27.1292
   -26.9803 -26.9195 -26.7801 -26.6737 -10.6534 -10.3776 -10.1988 -10.0518
    -9.9146  -9.8334  -9.7097  -9.5064  -9.4799  -9.3943  -9.3565  -9.2151
    -9.1527  -8.9774  -8.7239  -8.6727  -8.5865  -8.4777  -8.3791  -8.3478
    -8.2016  -7.9489  -7.8376  -7.7156  -4.2731  -3.2643  -3.1735  -2.0469
    -0.6800  -0.6035  -0.1871  -0.0108   0.1106   0.4061   0.5059   0.9122
     1.4105   1.6713

     occupation numbers 
     1.0000   1.0000   1.0000   1.0000   1.0000   1.0000   1.0000   1.0000
     1.0000   1.0000   1.0000   1.0000   1.0000   1.0000   1.0000   1.0000
     1.0000   1.0000   1.0000   1.0000   1.0000   1.0000   1.0000   1.0000
     1.0000   1.0000   1.0000   1.0000   1.0000   1.0000   1.0000   1.0000
     1.0000   1.0000   1.0000   1.0000   1.0000   1.0000   1.0000   1.0000
     1.0000   1.0000   1.0000   1.0000   1.0000   1.0000   1.0000   0.9830
     0.0000   0.0000   0.0000   0.0000   0.0000   0.0000   0.0000   0.0000
     0.0000   0.0000

          k =-0.0000 0.6667 0.0000 ( 83670 PWs)   bands (ev):

   -58.4914 -58.2574 -58.2410 -35.4276 -35.0008 -34.9750 -34.8993 -34.5580
   -34.5157 -34.1878 -34.1009 -33.9275 -27.7984 -27.6535 -27.1277 -27.1252
   -27.1235 -26.8262 -26.7703 -26.7585 -10.6318 -10.3739 -10.2249 -10.0048
    -9.9498  -9.8204  -9.5536  -9.5073  -9.4946  -9.3183  -9.2854  -9.2023
    -9.1872  -9.0531  -8.7804  -8.6892  -8.6469  -8.5724  -8.4277  -8.3281
    -8.1784  -7.8490  -7.8257  -7.8099  -4.2913  -3.2618  -3.1346  -2.0796
    -0.7030  -0.5942  -0.0969  -0.0475   0.2152   0.2572   0.3708   0.8163
     1.5424   1.6940

     occupation numbers 
     1.0000   1.0000   1.0000   1.0000   1.0000   1.0000   1.0000   1.0000
     1.0000   1.0000   1.0000   1.0000   1.0000   1.0000   1.0000   1.0000
     1.0000   1.0000   1.0000   1.0000   1.0000   1.0000   1.0000   1.0000
     1.0000   1.0000   1.0000   1.0000   1.0000   1.0000   1.0000   1.0000
     1.0000   1.0000   1.0000   1.0000   1.0000   1.0000   1.0000   1.0000
     1.0000   1.0000   1.0000   1.0000   1.0000   1.0000   1.0000   1.0803
     0.0000   0.0000   0.0000   0.0000   0.0000   0.0000   0.0000   0.0000
     0.0000   0.0000

     the Fermi energy is    -2.0030 ev

!    total energy              =    -725.43034864 Ry
     estimated scf accuracy    <          8.1E-14 Ry
     smearing contrib. (-TS)   =       0.00010239 Ry
     internal energy E=F+TS    =    -725.43045102 Ry

     convergence has been achieved in   3 iterations

     Forces acting on atoms (cartesian axes, Ry/au):

     atom    1 type  1   force =    -0.00000017   -0.00000000    0.00000026
     atom    2 type  1   force =     0.00000008   -0.00000015    0.00000026
     atom    3 type  1   force =     0.00000008    0.00000015    0.00000026
     atom    4 type  2   force =     0.00000000    0.00000000    0.00000020
     atom    5 type  2   force =    -0.00000080   -0.00000000   -0.00000045
     atom    6 type  2   force =     0.00000040   -0.00000069   -0.00000045
     atom    7 type  2   force =     0.00000040    0.00000069   -0.00000045
     atom    8 type  2   force =     0.00000000    0.00000000    0.00000042
     atom    9 type  2   force =    -0.00000003   -0.00000000   -0.00000002
     atom   10 type  2   force =     0.00000002   -0.00000003   -0.00000002
     atom   11 type  2   force =     0.00000002    0.00000003   -0.00000002
     The non-local contrib.  to forces
     atom    1 type  1   force =    -0.36975222   -0.00000000   -0.05734081
     atom    2 type  1   force =     0.18487611   -0.32021482   -0.05734081
     atom    3 type  1   force =     0.18487611    0.32021482   -0.05734081
     atom    4 type  2   force =    -0.00000000   -0.00000000    1.51293266
     atom    5 type  2   force =    -0.58470086   -0.00000000    0.96511617
     atom    6 type  2   force =     0.29235043   -0.50636580    0.96511617
     atom    7 type  2   force =     0.29235043    0.50636580    0.96511617
     atom    8 type  2   force =    -0.00000000    0.00000000   -1.06015532
     atom    9 type  2   force =     0.76132308   -0.00000000   -1.21046345
     atom   10 type  2   force =    -0.38066154    0.65932513   -1.21046345
     atom   11 type  2   force =    -0.38066154   -0.65932513   -1.21046345
     The ionic contribution  to forces
     atom    1 type  1   force =     7.34346985    0.00000000   -1.77499782
     atom    2 type  1   force =    -3.67173493    6.35963145   -1.77499782
     atom    3 type  1   force =    -3.67173493   -6.35963145   -1.77499782
     atom    4 type  2   force =    -0.00000000   -0.00000000  -54.09524071
     atom    5 type  2   force =     6.69139891   -0.00000000  -38.24434482
     atom    6 type  2   force =    -3.34569945    5.79492145  -38.24434482
     atom    7 type  2   force =    -3.34569945   -5.79492145  -38.24434482
     atom    8 type  2   force =     0.00000001   -0.00000000   39.98315012
     atom    9 type  2   force =    -9.15058532   -0.00000000   44.72337284
     atom   10 type  2   force =     4.57529266   -7.92463934   44.72337284
     atom   11 type  2   force =     4.57529266    7.92463934   44.72337284
     The local contribution  to forces
     atom    1 type  1   force =    -6.97276869   -0.00000000    1.83235688
     atom    2 type  1   force =     3.48638430   -6.03859480    1.83235688
     atom    3 type  1   force =     3.48638430    6.03859480    1.83235688
     atom    4 type  2   force =     0.00000000   -0.00000000   52.58177206
     atom    5 type  2   force =    -6.10686555    0.00000000   37.27857968
     atom    6 type  2   force =     3.05343277   -5.28870070   37.27857968
     atom    7 type  2   force =     3.05343277    5.28870070   37.27857968
     atom    8 type  2   force =     0.00000004    0.00000000  -38.92255900
     atom    9 type  2   force =     8.38967178   -0.00000000  -43.51214951
     atom   10 type  2   force =    -4.19483589    7.26566889  -43.51214951
     atom   11 type  2   force =    -4.19483589   -7.26566889  -43.51214951
     The core correction contribution to forces
     atom    1 type  1   force =     0.00000000    0.00000000    0.00000000
     atom    2 type  1   force =     0.00000000    0.00000000    0.00000000
     atom    3 type  1   force =     0.00000000    0.00000000    0.00000000
     atom    4 type  2   force =     0.00000000    0.00000000    0.00000000
     atom    5 type  2   force =     0.00000000    0.00000000    0.00000000
     atom    6 type  2   force =     0.00000000    0.00000000    0.00000000
     atom    7 type  2   force =     0.00000000    0.00000000    0.00000000
     atom    8 type  2   force =     0.00000000    0.00000000    0.00000000
     atom    9 type  2   force =     0.00000000    0.00000000    0.00000000
     atom   10 type  2   force =     0.00000000    0.00000000    0.00000000
     atom   11 type  2   force =     0.00000000    0.00000000    0.00000000
     The Hubbard contrib.    to forces
     atom    1 type  1   force =     0.00000000    0.00000000    0.00000000
     atom    2 type  1   force =     0.00000000    0.00000000    0.00000000
     atom    3 type  1   force =     0.00000000    0.00000000    0.00000000
     atom    4 type  2   force =     0.00000000    0.00000000    0.00000000
     atom    5 type  2   force =     0.00000000    0.00000000    0.00000000
     atom    6 type  2   force =     0.00000000    0.00000000    0.00000000
     atom    7 type  2   force =     0.00000000    0.00000000    0.00000000
     atom    8 type  2   force =     0.00000000    0.00000000    0.00000000
     atom    9 type  2   force =     0.00000000    0.00000000    0.00000000
     atom   10 type  2   force =     0.00000000    0.00000000    0.00000000
     atom   11 type  2   force =     0.00000000    0.00000000    0.00000000
     The SCF correction term to forces
     atom    1 type  1   force =     0.00000015    0.00000000   -0.00000086
     atom    2 type  1   force =    -0.00000007    0.00000013   -0.00000086
     atom    3 type  1   force =    -0.00000007   -0.00000013   -0.00000086
     atom    4 type  2   force =     0.00000000    0.00000000   -0.00000017
     atom    5 type  2   force =    -0.00000018   -0.00000000   -0.00000030
     atom    6 type  2   force =     0.00000009   -0.00000016   -0.00000030
     atom    7 type  2   force =     0.00000009    0.00000016   -0.00000030
     atom    8 type  2   force =    -0.00000000   -0.00000000   -0.00000027
     atom    9 type  2   force =     0.00000001   -0.00000000   -0.00000010
     atom   10 type  2   force =    -0.00000001    0.00000001   -0.00000010
     atom   11 type  2   force =    -0.00000001   -0.00000001   -0.00000010

     DFT-D3 dispersion contribution to forces:
     atom    1 type  1   force =    -0.00094928    0.00000000    0.00000861
     atom    2 type  1   force =     0.00047464   -0.00082210    0.00000861
     atom    3 type  1   force =     0.00047464    0.00082210    0.00000861
     atom    4 type  2   force =    -0.00000000   -0.00000000    0.00056209
     atom    5 type  2   force =     0.00016688    0.00000000    0.00067457
     atom    6 type  2   force =    -0.00008344    0.00014452    0.00067457
     atom    7 type  2   force =    -0.00008344   -0.00014452    0.00067457
     atom    8 type  2   force =    -0.00000000    0.00000000   -0.00040938
     atom    9 type  2   force =    -0.00040960   -0.00000000   -0.00073408
     atom   10 type  2   force =     0.00020480   -0.00035472   -0.00073408
     atom   11 type  2   force =     0.00020480    0.00035472   -0.00073408

     Total force =     0.000002     Total SCF correction =     0.000002

     DFT-D3 dispersion Force =     0.002599
     SCF correction compared to forces is large: reduce conv_thr to get better values


     Computing stress (Cartesian axis) and pressure

          total   stress  (Ry/bohr**3)                   (kbar)     P=        2.13
   0.00002214  -0.00000000   0.00000000            3.26       -0.00        0.00
  -0.00000000   0.00002214   0.00000000           -0.00        3.26        0.00
   0.00000000   0.00000000  -0.00000082            0.00        0.00       -0.12

     kinetic stress (kbar)   7195.03      0.00      0.00
                                0.00   7195.03      0.00
                                0.00      0.00   7180.12

     local   stress (kbar)-175543.91      0.00     -0.00
                                0.00-175543.91     -0.00
                               -0.00     -0.00 169081.96

     nonloc. stress (kbar)    354.57     -0.00     -0.00
                               -0.00    354.57     -0.00
                               -0.00     -0.00    363.50

     hartree stress (kbar)  86700.68     -0.00      0.00
                               -0.00  86700.68     -0.00
                                0.00     -0.00 -82837.71

     exc-cor stress (kbar)  -1082.38      0.00      0.00
                                0.00  -1082.38     -0.00
                                0.00     -0.00  -1085.02

     corecor stress (kbar)      0.00      0.00      0.00
                                0.00      0.00      0.00
                                0.00      0.00      0.00

     ewald   stress (kbar)  82382.01     -0.00      0.00
                               -0.00  82382.01      0.00
                                0.00      0.00 -92702.59

     hubbard stress (kbar)      0.00      0.00      0.00
                                0.00      0.00      0.00
                                0.00      0.00      0.00

     DFT-D   stress (kbar)     -2.73     -0.00     -0.00
                               -0.00     -2.73      0.00
                               -0.00      0.00     -0.37

     XDM     stress (kbar)      0.00      0.00      0.00
                                0.00      0.00      0.00
                                0.00      0.00      0.00

     dft-nl  stress (kbar)      0.00      0.00      0.00
                                0.00      0.00      0.00
                                0.00      0.00      0.00

     TS-vdW  stress (kbar)      0.00      0.00      0.00
                                0.00      0.00      0.00
                                0.00      0.00      0.00

     MDB     stress (kbar)      0.00      0.00      0.00
                                0.00      0.00      0.00
                                0.00      0.00      0.00

     3D-RISM stress (kbar)      0.00      0.00      0.00
                                0.00      0.00      0.00
                                0.00      0.00      0.00


     Damped Dynamics: convergence achieved in  30 steps

     End of damped dynamics calculation

     Final energy =    -725.4303486352 Ry

Begin final coordinates
     new unit-cell volume =   4949.58336 a.u.^3 (   733.45258 Ang^3 )
     density =      0.97512 g/cm^3

CELL_PARAMETERS (angstrom)
   5.112458790   2.951679459   0.000000000
  -5.112458790   2.951679459   0.000000000
   0.000000000   0.000000000  24.302056867

ATOMIC_POSITIONS (crystal)
Nb               0.1455207614       -0.1455207614       -0.1040737390
Nb               0.1455207614        0.2910415226       -0.1040737390
Nb              -0.2910415226       -0.1455207614       -0.1040737390
F               -0.0000000000        0.0000000000       -0.1688214952
F                0.4929826507       -0.4929826507       -0.1494370883
F                0.4929826507       -0.0140346986       -0.1494370883
F                0.0140346986       -0.4929826507       -0.1494370883
F                0.3333333333       -0.3333333333       -0.0570762347
F               -0.1600599540        0.1600599540       -0.0482760075
F               -0.1600599540       -0.3201199079       -0.0482760075
F                0.3201199079        0.1600599540       -0.0482760075
End final coordinates



     Writing all to output data dir ./out/Nb3F8.save/ :
     XML data file, charge density, pseudopotentials, collected wavefunctions

     init_run     :      0.98s CPU      1.08s WALL (       1 calls)
     electrons    :    110.81s CPU    176.58s WALL (      31 calls)
     update_pot   :    274.34s CPU    336.18s WALL (      30 calls)
     forces       :      3.47s CPU      4.21s WALL (      31 calls)
     force_dftd3  :      0.28s CPU      0.39s WALL (      31 calls)
     stress       :     19.54s CPU     20.26s WALL (      31 calls)
     stres_dftd3  :      0.60s CPU      0.62s WALL (      31 calls)

     Called by init_run:
     wfcinit      :      0.10s CPU      0.12s WALL (       1 calls)
     wfcinit:wfcr :      0.09s CPU      0.10s WALL (       1 calls)
     potinit      :      0.05s CPU      0.06s WALL (       1 calls)
     hinit0       :      0.65s CPU      0.67s WALL (       1 calls)

     Called by electrons:
     c_bands      :     86.75s CPU     88.87s WALL (     218 calls)
     sum_band     :     10.61s CPU     11.22s WALL (     218 calls)
     v_of_rho     :      7.05s CPU      7.80s WALL (     218 calls)
     v_h          :      0.62s CPU      0.74s WALL (     218 calls)
     v_xc         :      6.43s CPU      7.06s WALL (     218 calls)
     mix_rho      :      1.74s CPU      1.84s WALL (     218 calls)
     energy_dftd3 :      0.20s CPU      0.20s WALL (      31 calls)

     Called by c_bands:
     init_us_2    :      2.91s CPU      3.01s WALL (     437 calls)
     cegterg      :     70.75s CPU     72.24s WALL (     219 calls)

     Called by sum_band:
     sum_band:wei :      0.41s CPU      0.42s WALL (     218 calls)
     sum_band:loo :      8.57s CPU      8.75s WALL (     218 calls)
     sum_band:buf :      0.00s CPU      0.00s WALL (     218 calls)
     sum_band:ini :      1.69s CPU      1.75s WALL (     218 calls)

     Called by *egterg:
     cdiaghg      :      4.52s CPU      4.59s WALL (    1211 calls)
     cegterg:over :      5.92s CPU      6.01s WALL (    1054 calls)
     cegterg:upda :      4.46s CPU      4.57s WALL (    1054 calls)
     cegterg:last :      5.05s CPU      5.16s WALL (     455 calls)
     h_psi        :     47.75s CPU     48.81s WALL (    1274 calls)
     g_psi        :      0.21s CPU      0.22s WALL (    1054 calls)

     Called by h_psi:
     h_psi:calbec :      5.57s CPU      5.69s WALL (    1274 calls)
     vloc_psi     :     35.90s CPU     36.65s WALL (    1274 calls)
     add_vuspsi   :      5.21s CPU      5.31s WALL (    1274 calls)

     General routines
     calbec       :     44.52s CPU     45.12s WALL (    1458 calls)
     fft          :      3.13s CPU      3.85s WALL (    2458 calls)
     ffts         :      0.45s CPU      0.53s WALL (     218 calls)
     fftw         :     37.87s CPU     38.64s WALL (   80564 calls)
     davcio       :      0.02s CPU      3.25s WALL (     116 calls)

     Parallel routines

     PWSCF        :    422.29s CPU    580.06s WALL


   This run was terminated on:  22: 7:13   7May2025            

=------------------------------------------------------------------------------=
   JOB DONE.
=------------------------------------------------------------------------------=
