
     Program PWSCF v.7.3.1 starts on  2May2025 at  9:55:21 

     This program is part of the open-source Quantum ESPRESSO suite
     for quantum simulation of materials; please cite
         "P. Giannozzi et al., J. Phys.:Condens. Matter 21 395502 (2009);
         "P. Giannozzi et al., J. Phys.:Condens. Matter 29 465901 (2017);
         "P. Giannozzi et al., J. Chem. Phys. 152 154105 (2020);
          URL http://www.quantum-espresso.org", 
     in publications or presentations arising from this work. More details at
     http://www.quantum-espresso.org/quote

     Parallel version (MPI & OpenMP), running on     384 processor cores
     Number of MPI processes:               384
     Threads/MPI process:                     1

     MPI processes distributed on     2 nodes
     343553 MiB available memory on the printing compute node when the environment starts

     Waiting for input...
     Reading input from standard input
Warning: card &CELL ignored
Warning: card / ignored
Warning: card &FCP ignored
Warning: card / ignored
Warning: card &RISM ignored
Warning: card / ignored

     Current dimensions of program PWSCF are:
     Max number of different atomic species (ntypx) = 10
     Max number of k-points (npk) =  40000
     Max angular momentum in pseudopotentials (lmaxx) =  4

     IMPORTANT: XC functional enforced from input :
     Exchange-correlation= PBE
                           (   1   4   3   4   0   0   0)
     Any further DFT definition will be discarded
     Please, verify this is what you really want

     Message from routine setup:
     using ibrav=0 with symmetry is DISCOURAGED, use correct ibrav instead
     Message from routine setup:
     Dynamics, you should have no symmetries

     K-points division:     npool     =      16
     R & G space division:  proc/nbgrp/npool/nimage =      24
     Subspace diagonalization in iterative solution of the eigenvalue problem:
     a serial algorithm will be used


     Parallelization info
     --------------------
     sticks:   dense  smooth     PW     G-vecs:    dense   smooth      PW
     Min         142     142     38                11136    11136    1555
     Max         143     143     39                11146    11146    1564
     Sum        3427    3427    925               267435   267435   37405

     Using Slab Decomposition



     bravais-lattice index     =            0
     lattice parameter (alat)  =      11.1557  a.u.
     unit-cell volume          =    1979.8333 (a.u.)^3
     number of atoms/cell      =           22
     number of atomic types    =            2
     number of electrons       =       190.00
     number of Kohn-Sham states=          114
     kinetic-energy cutoff     =     100.0000  Ry
     charge density cutoff     =     400.0000  Ry
     scf convergence threshold =      1.0E-12
     mixing beta               =       0.7000
     number of iterations used =            8  plain     mixing
     energy convergence thresh.=      1.0E-04
     force convergence thresh. =      1.0E-06
     Exchange-correlation= PBE
                           (   1   4   3   4   0   0   0)
     nstep                     =           50


     celldm(1)=  11.155732  celldm(2)=   0.000000  celldm(3)=   0.000000
     celldm(4)=   0.000000  celldm(5)=   0.000000  celldm(6)=   0.000000

     crystal axes: (cart. coord. in units of alat)
               a(1) = (   0.866025   0.500000   0.000000 )  
               a(2) = (  -0.866025   0.500000   0.000000 )  
               a(3) = (  -0.577350   0.000000   1.646660 )  

     reciprocal axes: (cart. coord. in units 2 pi/alat)
               b(1) = (  0.577350  1.000000  0.202430 )  
               b(2) = ( -0.577350  1.000000 -0.202430 )  
               b(3) = (  0.000000 -0.000000  0.607290 )  


     PseudoPot. # 1 for Nb read from file:
     /scratch-shared/mroesner/Nb3X8_cDFPT/pp/Nb_ONCV_PBE-1.2.upf
     MD5 check sum: 2c750ac0b6910ff4cf0ab5f6c4124a64
     Pseudo is Norm-conserving, Zval = 13.0
     Generated using ONCVPSP code by D. R. Hamann
     Using radial grid of  602 points,  6 beta functions with: 
                l(1) =   0
                l(2) =   0
                l(3) =   1
                l(4) =   1
                l(5) =   2
                l(6) =   2

     PseudoPot. # 2 for F  read from file:
     /scratch-shared/mroesner/Nb3X8_cDFPT/pp/F_ONCV_PBE-1.2.upf
     MD5 check sum: 1d8275f47d602dd53cad6bcdc0eda7dc
     Pseudo is Norm-conserving, Zval =  7.0
     Generated using ONCVPSP code by D. R. Hamann
     Using radial grid of  602 points,  4 beta functions with: 
                l(1) =   0
                l(2) =   0
                l(3) =   1
                l(4) =   1

     atomic species   valence    mass     pseudopotential
     Nb               13.00    92.90637     Nb( 1.00)
     F                 7.00    18.99840     F ( 1.00)

     12 Sym. Ops., with inversion, found


                                    s                        frac. trans.

      isym =  1     identity                                     

 cryst.   s( 1) = (     1          0          0      )
                  (     0          1          0      )
                  (     0          0          1      )

 cart.    s( 1) = (  1.0000000 -0.0000000 -0.0000000 )
                  ( -0.0000000  1.0000000  0.0000000 )
                  (  0.0000000  0.0000000  1.0000000 )


      isym =  2     180 deg rotation - cart. axis [0,1,0]        

 cryst.   s( 2) = (     0          1          0      )
                  (     1          0          0      )
                  (     0          0         -1      )

 cart.    s( 2) = ( -1.0000000 -0.0000000  0.0000000 )
                  (  0.0000000  1.0000000 -0.0000000 )
                  (  0.0000000  0.0000000 -1.0000000 )


      isym =  3     120 deg rotation - cryst. axis [0,0,1]       

 cryst.   s( 3) = (     0          1          0      )
                  (    -1         -1          0      )
                  (     0         -1          1      )

 cart.    s( 3) = ( -0.5000000 -0.8660254 -0.0000000 )
                  (  0.8660254 -0.5000000  0.0000000 )
                  (  0.0000000  0.0000000  1.0000000 )


      isym =  4     120 deg rotation - cryst. axis [0,0,-1]      

 cryst.   s( 4) = (    -1         -1          0      )
                  (     1          0          0      )
                  (     1          0          1      )

 cart.    s( 4) = ( -0.5000000  0.8660254 -0.0000000 )
                  ( -0.8660254 -0.5000000 -0.0000000 )
                  (  0.0000000  0.0000000  1.0000000 )


      isym =  5     180 deg rotation - cryst. axis [1,-1,0]      

 cryst.   s( 5) = (    -1         -1          0      )
                  (     0          1          0      )
                  (     0          1         -1      )

 cart.    s( 5) = (  0.5000000 -0.8660254  0.0000000 )
                  ( -0.8660254 -0.5000000 -0.0000000 )
                  (  0.0000000  0.0000000 -1.0000000 )


      isym =  6     180 deg rotation - cryst. axis [2,1,0]       

 cryst.   s( 6) = (     1          0          0      )
                  (    -1         -1          0      )
                  (    -1          0         -1      )

 cart.    s( 6) = (  0.5000000  0.8660254  0.0000000 )
                  (  0.8660254 -0.5000000  0.0000000 )
                  (  0.0000000  0.0000000 -1.0000000 )


      isym =  7     inversion                                    

 cryst.   s( 7) = (    -1          0          0      )
                  (     0         -1          0      )
                  (     0          0         -1      )

 cart.    s( 7) = ( -1.0000000  0.0000000  0.0000000 )
                  (  0.0000000 -1.0000000 -0.0000000 )
                  (  0.0000000  0.0000000 -1.0000000 )


      isym =  8     inv. 180 deg rotation - cart. axis [0,1,0]   

 cryst.   s( 8) = (     0         -1          0      )
                  (    -1          0          0      )
                  (     0          0          1      )

 cart.    s( 8) = (  1.0000000  0.0000000 -0.0000000 )
                  ( -0.0000000 -1.0000000  0.0000000 )
                  (  0.0000000  0.0000000  1.0000000 )


      isym =  9     inv. 120 deg rotation - cryst. axis [0,0,1]  

 cryst.   s( 9) = (     0         -1          0      )
                  (     1          1          0      )
                  (     0          1         -1      )

 cart.    s( 9) = (  0.5000000  0.8660254  0.0000000 )
                  ( -0.8660254  0.5000000 -0.0000000 )
                  (  0.0000000  0.0000000 -1.0000000 )


      isym = 10     inv. 120 deg rotation - cryst. axis [0,0,-1] 

 cryst.   s(10) = (     1          1          0      )
                  (    -1          0          0      )
                  (    -1          0         -1      )

 cart.    s(10) = (  0.5000000 -0.8660254  0.0000000 )
                  (  0.8660254  0.5000000  0.0000000 )
                  (  0.0000000  0.0000000 -1.0000000 )


      isym = 11     inv. 180 deg rotation - cryst. axis [1,-1,0] 

 cryst.   s(11) = (     1          1          0      )
                  (     0         -1          0      )
                  (     0         -1          1      )

 cart.    s(11) = ( -0.5000000  0.8660254 -0.0000000 )
                  (  0.8660254  0.5000000  0.0000000 )
                  (  0.0000000  0.0000000  1.0000000 )


      isym = 12     inv. 180 deg rotation - cryst. axis [2,1,0]  

 cryst.   s(12) = (    -1          0          0      )
                  (     1          1          0      )
                  (     1          0          1      )

 cart.    s(12) = ( -0.5000000 -0.8660254 -0.0000000 )
                  ( -0.8660254  0.5000000 -0.0000000 )
                  (  0.0000000  0.0000000  1.0000000 )


   Cartesian axes

     site n.     atom                  positions (alat units)
         1        Nb     tau(   1) = (   0.2522031   0.0000000  -0.4116592  )
         2        Nb     tau(   2) = (  -0.1261016   0.2184143  -0.4116592  )
         3        Nb     tau(   3) = (  -0.1261016  -0.2184143  -0.4116592  )
         4        Nb     tau(   4) = (  -0.2522031  -0.0000000   0.4116592  )
         5        Nb     tau(   5) = (   0.1261016  -0.2184143   0.4116592  )
         6        Nb     tau(   6) = (   0.1261016   0.2184143   0.4116592  )
         7        F      tau(   7) = (   0.0000000   0.0000000  -0.6755977  )
         8        F      tau(   8) = (   0.8569729   0.0000000  -0.5958078  )
         9        F      tau(   9) = (   0.4375389   0.2421603  -0.5958078  )
        10        F      tau(  10) = (   0.4375389  -0.2421603  -0.5958078  )
        11        F      tau(  11) = (   0.5773503  -0.0000000  -0.2213053  )
        12        F      tau(  12) = (  -0.2835881   0.0000000  -0.1869646  )
        13        F      tau(  13) = (   0.1417940  -0.2455945  -0.1869646  )
        14        F      tau(  14) = (   0.1417941   0.2455945  -0.1869646  )
        15        F      tau(  15) = (   0.2835881  -0.0000000   0.1869646  )
        16        F      tau(  16) = (  -0.1417940   0.2455945   0.1869646  )
        17        F      tau(  17) = (  -0.1417941  -0.2455945   0.1869646  )
        18        F      tau(  18) = (  -0.5773503   0.0000000   0.2213053  )
        19        F      tau(  19) = (  -0.8569729  -0.0000000   0.5958078  )
        20        F      tau(  20) = (  -0.4375389  -0.2421603   0.5958078  )
        21        F      tau(  21) = (  -0.4375389   0.2421603   0.5958078  )
        22        F      tau(  22) = (  -0.0000000  -0.0000000   0.6755977  )

     --------------------------------------------
     DFT-D3 Dispersion Correction (no 3-body):
     --------------------------------------------
       Reference C6 values for interpolation: 

         atom   Coordination number   C6
         F          0.000            19.38
         F          0.998            14.27
         Nb         0.000          2950.50
         Nb         1.954          1161.16
         Nb         2.922           857.79

       Values used:

         atom   Coordination number  R0_AB[au]  C6      C8
         Nb         9.493            3.647    857.79 111659.18
         Nb         9.493            3.647    857.79 111659.18
         Nb         9.493            3.647    857.79 111659.18
         Nb         9.493            3.647    857.79 111659.18
         Nb         9.493            3.647    857.79 111659.18
         Nb         9.493            3.647    857.79 111659.18
         F          2.947            2.173     14.27    244.15
         F          2.035            2.173     14.27    244.15
         F          2.035            2.173     14.27    244.15
         F          2.035            2.173     14.27    244.15
         F          2.863            2.173     14.27    244.15
         F          2.050            2.173     14.27    244.15
         F          2.050            2.173     14.27    244.15
         F          2.050            2.173     14.27    244.15
         F          2.050            2.173     14.27    244.15
         F          2.050            2.173     14.27    244.15
         F          2.050            2.173     14.27    244.15
         F          2.863            2.173     14.27    244.15
         F          2.035            2.173     14.27    244.15
         F          2.035            2.173     14.27    244.15
         F          2.035            2.173     14.27    244.15
         F          2.947            2.173     14.27    244.15

         Molecular C6 ( Ry / a.u.^6 ) =     52655.74


   Crystallographic axes

     site n.     atom                  positions (cryst. coord.)
         1        Nb     tau(   1) = (  0.0622774 -0.0622774 -0.2499965  )
         2        Nb     tau(   2) = (  0.0622774  0.3745513 -0.2499965  )
         3        Nb     tau(   3) = ( -0.3745513 -0.0622774 -0.2499965  )
         4        Nb     tau(   4) = ( -0.0622774  0.0622774  0.2499965  )
         5        Nb     tau(   5) = ( -0.0622774 -0.3745513  0.2499965  )
         6        Nb     tau(   6) = (  0.3745513  0.0622774  0.2499965  )
         7        F      tau(   7) = ( -0.1367613  0.1367613 -0.4102838  )
         8        F      tau(   8) = (  0.3741642 -0.3741642 -0.3618282  )
         9        F      tau(   9) = (  0.3741642  0.1101565 -0.3618282  )
        10        F      tau(  10) = ( -0.1101565 -0.3741642 -0.3618282  )
        11        F      tau(  11) = (  0.2885345 -0.2885345 -0.1343965  )
        12        F      tau(  12) = ( -0.2015769  0.2015769 -0.1135418  )
        13        F      tau(  13) = ( -0.2015769 -0.2896121 -0.1135418  )
        14        F      tau(  14) = (  0.2896121  0.2015769 -0.1135418  )
        15        F      tau(  15) = (  0.2015769 -0.2015769  0.1135418  )
        16        F      tau(  16) = (  0.2015769  0.2896121  0.1135418  )
        17        F      tau(  17) = ( -0.2896121 -0.2015769  0.1135418  )
        18        F      tau(  18) = ( -0.2885345  0.2885345  0.1343965  )
        19        F      tau(  19) = ( -0.3741642  0.3741642  0.3618282  )
        20        F      tau(  20) = ( -0.3741642 -0.1101565  0.3618282  )
        21        F      tau(  21) = (  0.1101565  0.3741642  0.3618282  )
        22        F      tau(  22) = (  0.1367613 -0.1367613  0.4102838  )

     number of k points=    32  Marzari-Vanderbilt smearing, width (Ry)=  0.0037
                       cart. coord. in units 2pi/alat
        k(    1) = (   0.0000000   0.0000000   0.0000000), wk =   0.0092593
        k(    2) = (   0.0000000   0.0000000   0.1012150), wk =   0.0185185
        k(    3) = (   0.0000000   0.0000000   0.2024300), wk =   0.0185185
        k(    4) = (   0.0000000   0.0000000  -0.3036450), wk =   0.0092593
        k(    5) = (  -0.0962250   0.1666667  -0.0337383), wk =   0.0555556
        k(    6) = (  -0.0962250   0.1666667   0.0674767), wk =   0.0555556
        k(    7) = (  -0.0962250   0.1666667   0.1686917), wk =   0.0555556
        k(    8) = (  -0.0962250   0.1666667  -0.3373834), wk =   0.0555556
        k(    9) = (  -0.0962250   0.1666667  -0.2361684), wk =   0.0555556
        k(   10) = (  -0.0962250   0.1666667  -0.1349533), wk =   0.0555556
        k(   11) = (  -0.1924501   0.3333333  -0.0674767), wk =   0.0555556
        k(   12) = (  -0.1924501   0.3333333   0.0337383), wk =   0.0555556
        k(   13) = (  -0.1924501   0.3333333   0.1349533), wk =   0.0555556
        k(   14) = (  -0.1924501   0.3333333  -0.3711217), wk =   0.0555556
        k(   15) = (  -0.1924501   0.3333333  -0.2699067), wk =   0.0555556
        k(   16) = (  -0.1924501   0.3333333  -0.1686917), wk =   0.0555556
        k(   17) = (   0.2886751  -0.5000000   0.1012150), wk =   0.0277778
        k(   18) = (   0.2886751  -0.5000000   0.2024300), wk =   0.0555556
        k(   19) = (   0.2886751  -0.5000000   0.3036450), wk =   0.0555556
        k(   20) = (   0.2886751  -0.5000000  -0.2024300), wk =   0.0277778
        k(   21) = (   0.0000000   0.3333333   0.0000000), wk =   0.0555556
        k(   22) = (   0.0000000   0.3333333   0.1012150), wk =   0.1111111
        k(   23) = (   0.0000000   0.3333333   0.2024300), wk =   0.1111111
        k(   24) = (   0.0000000   0.3333333  -0.3036450), wk =   0.0555556
        k(   25) = (  -0.0962250   0.5000000  -0.0337383), wk =   0.1111111
        k(   26) = (  -0.0962250   0.5000000   0.0674767), wk =   0.1111111
        k(   27) = (  -0.0962250   0.5000000   0.1686917), wk =   0.1111111
        k(   28) = (  -0.0962250   0.5000000  -0.3373834), wk =   0.1111111
        k(   29) = (  -0.0962250   0.5000000  -0.2361684), wk =   0.1111111
        k(   30) = (  -0.0962250   0.5000000  -0.1349533), wk =   0.1111111
        k(   31) = (   0.0000000   0.6666667   0.0000000), wk =   0.0555556
        k(   32) = (   0.0000000   0.6666667   0.1012150), wk =   0.0555556

                       cryst. coord.
        k(    1) = (   0.0000000   0.0000000   0.0000000), wk =   0.0092593
        k(    2) = (   0.0000000   0.0000000   0.1666667), wk =   0.0185185
        k(    3) = (   0.0000000   0.0000000   0.3333333), wk =   0.0185185
        k(    4) = (   0.0000000   0.0000000  -0.5000000), wk =   0.0092593
        k(    5) = (  -0.0000000   0.1666667   0.0000000), wk =   0.0555556
        k(    6) = (  -0.0000000   0.1666667   0.1666667), wk =   0.0555556
        k(    7) = (  -0.0000000   0.1666667   0.3333333), wk =   0.0555556
        k(    8) = (  -0.0000000   0.1666667  -0.5000000), wk =   0.0555556
        k(    9) = (  -0.0000000   0.1666667  -0.3333333), wk =   0.0555556
        k(   10) = (  -0.0000000   0.1666667  -0.1666667), wk =   0.0555556
        k(   11) = (  -0.0000000   0.3333333   0.0000000), wk =   0.0555556
        k(   12) = (  -0.0000000   0.3333333   0.1666667), wk =   0.0555556
        k(   13) = (  -0.0000000   0.3333333   0.3333333), wk =   0.0555556
        k(   14) = (  -0.0000000   0.3333333  -0.5000000), wk =   0.0555556
        k(   15) = (  -0.0000000   0.3333333  -0.3333333), wk =   0.0555556
        k(   16) = (  -0.0000000   0.3333333  -0.1666667), wk =   0.0555556
        k(   17) = (   0.0000000  -0.5000000  -0.0000000), wk =   0.0277778
        k(   18) = (   0.0000000  -0.5000000   0.1666667), wk =   0.0555556
        k(   19) = (   0.0000000  -0.5000000   0.3333333), wk =   0.0555556
        k(   20) = (   0.0000000  -0.5000000  -0.5000000), wk =   0.0277778
        k(   21) = (   0.1666667   0.1666667   0.0000000), wk =   0.0555556
        k(   22) = (   0.1666667   0.1666667   0.1666667), wk =   0.1111111
        k(   23) = (   0.1666667   0.1666667   0.3333333), wk =   0.1111111
        k(   24) = (   0.1666667   0.1666667  -0.5000000), wk =   0.0555556
        k(   25) = (   0.1666667   0.3333333   0.0000000), wk =   0.1111111
        k(   26) = (   0.1666667   0.3333333   0.1666667), wk =   0.1111111
        k(   27) = (   0.1666667   0.3333333   0.3333333), wk =   0.1111111
        k(   28) = (   0.1666667   0.3333333  -0.5000000), wk =   0.1111111
        k(   29) = (   0.1666667   0.3333333  -0.3333333), wk =   0.1111111
        k(   30) = (   0.1666667   0.3333333  -0.1666667), wk =   0.1111111
        k(   31) = (   0.3333333   0.3333333   0.0000000), wk =   0.0555556
        k(   32) = (   0.3333333   0.3333333   0.1666667), wk =   0.0555556

     Dense  grid:   267435 G-vectors     FFT dimensions: (  72,  72, 125)

     Dynamical RAM for                 wfc:       2.42 MB

     Dynamical RAM for     wfc (w. buffer):       7.27 MB

     Dynamical RAM for           str. fact:       0.34 MB

     Dynamical RAM for           local pot:       0.00 MB

     Dynamical RAM for          nlocal pot:       5.02 MB

     Dynamical RAM for                qrad:       3.21 MB

     Dynamical RAM for          rho,v,vnew:       1.22 MB

     Dynamical RAM for               rhoin:       0.41 MB

     Dynamical RAM for            rho*nmix:       2.72 MB

     Dynamical RAM for           G-vectors:       0.72 MB

     Dynamical RAM for          h,s,v(r/c):       2.38 MB

     Dynamical RAM for          <psi|beta>:       0.41 MB

     Dynamical RAM for                 psi:       4.85 MB

     Dynamical RAM for                hpsi:       4.85 MB

     Dynamical RAM for      wfcinit/wfcrot:       5.14 MB

     Estimated static dynamical RAM per process >      19.89 MB

     Estimated max dynamical RAM per process >      35.09 MB

     Estimated total dynamical RAM >      12.20 GB

     Initial potential from superposition of free atoms

     starting charge     189.3015, renormalised to     190.0000
     Starting wfcs are random

     total cpu time spent up to now is        1.4 secs

     per-process dynamical memory:   152.4 Mb

     Self-consistent Calculation

     iteration #  1     ecut=   100.00 Ry     beta= 0.70
     Davidson diagonalization with overlap

---- Real-time Memory Report at c_bands before calling an iterative solver
           215 MiB given to the printing process from OS
           148 MiB allocation reported by mallinfo(arena+hblkhd)
        336792 MiB available memory on the node where the printing process lives
------------------
     ethr =  1.00E-02,  avg # of iterations = 12.2

     Threshold (ethr) on eigenvalues was too large:
     Diagonalizing with lowered threshold

     Davidson diagonalization with overlap

---- Real-time Memory Report at c_bands before calling an iterative solver
           238 MiB given to the printing process from OS
           151 MiB allocation reported by mallinfo(arena+hblkhd)
        335551 MiB available memory on the node where the printing process lives
------------------
     ethr =  9.17E-04,  avg # of iterations =  2.0

     total cpu time spent up to now is        5.0 secs

     total energy              =   -1450.22835334 Ry
     estimated scf accuracy    <       1.79396163 Ry

     iteration #  2     ecut=   100.00 Ry     beta= 0.70
     Davidson diagonalization with overlap

---- Real-time Memory Report at c_bands before calling an iterative solver
           240 MiB given to the printing process from OS
           161 MiB allocation reported by mallinfo(arena+hblkhd)
        335288 MiB available memory on the node where the printing process lives
------------------
     ethr =  9.44E-04,  avg # of iterations =  6.9

     total cpu time spent up to now is        6.5 secs

     total energy              =   -1450.41909000 Ry
     estimated scf accuracy    <       2.08170365 Ry

     iteration #  3     ecut=   100.00 Ry     beta= 0.70
     Davidson diagonalization with overlap

---- Real-time Memory Report at c_bands before calling an iterative solver
           244 MiB given to the printing process from OS
           165 MiB allocation reported by mallinfo(arena+hblkhd)
        335187 MiB available memory on the node where the printing process lives
------------------
     ethr =  9.44E-04,  avg # of iterations =  2.8

     total cpu time spent up to now is        7.4 secs

     total energy              =   -1450.91099046 Ry
     estimated scf accuracy    <       0.10039287 Ry

     iteration #  4     ecut=   100.00 Ry     beta= 0.70
     Davidson diagonalization with overlap

---- Real-time Memory Report at c_bands before calling an iterative solver
           244 MiB given to the printing process from OS
           165 MiB allocation reported by mallinfo(arena+hblkhd)
        335178 MiB available memory on the node where the printing process lives
------------------
     ethr =  5.28E-05,  avg # of iterations =  9.6

     total cpu time spent up to now is        9.4 secs

     total energy              =   -1450.93002472 Ry
     estimated scf accuracy    <       0.01884581 Ry

     iteration #  5     ecut=   100.00 Ry     beta= 0.70
     Davidson diagonalization with overlap

---- Real-time Memory Report at c_bands before calling an iterative solver
           245 MiB given to the printing process from OS
           165 MiB allocation reported by mallinfo(arena+hblkhd)
        335180 MiB available memory on the node where the printing process lives
------------------
     ethr =  9.92E-06,  avg # of iterations =  8.2

     total cpu time spent up to now is       11.0 secs

     total energy              =   -1450.93323532 Ry
     estimated scf accuracy    <       0.01030281 Ry

     iteration #  6     ecut=   100.00 Ry     beta= 0.70
     Davidson diagonalization with overlap

---- Real-time Memory Report at c_bands before calling an iterative solver
           245 MiB given to the printing process from OS
           165 MiB allocation reported by mallinfo(arena+hblkhd)
        335191 MiB available memory on the node where the printing process lives
------------------
     ethr =  5.42E-06,  avg # of iterations =  3.2

     total cpu time spent up to now is       12.0 secs

     total energy              =   -1450.93522343 Ry
     estimated scf accuracy    <       0.00022302 Ry

     iteration #  7     ecut=   100.00 Ry     beta= 0.70
     Davidson diagonalization with overlap

---- Real-time Memory Report at c_bands before calling an iterative solver
           245 MiB given to the printing process from OS
           165 MiB allocation reported by mallinfo(arena+hblkhd)
        335179 MiB available memory on the node where the printing process lives
------------------
     ethr =  1.17E-07,  avg # of iterations = 13.5

     total cpu time spent up to now is       13.9 secs

     total energy              =   -1450.93529976 Ry
     estimated scf accuracy    <       0.00007693 Ry

     iteration #  8     ecut=   100.00 Ry     beta= 0.70
     Davidson diagonalization with overlap

---- Real-time Memory Report at c_bands before calling an iterative solver
           245 MiB given to the printing process from OS
           165 MiB allocation reported by mallinfo(arena+hblkhd)
        335183 MiB available memory on the node where the printing process lives
------------------
     ethr =  4.05E-08,  avg # of iterations =  6.4

     total cpu time spent up to now is       15.7 secs

     total energy              =   -1450.93531235 Ry
     estimated scf accuracy    <       0.00000738 Ry

     iteration #  9     ecut=   100.00 Ry     beta= 0.70
     Davidson diagonalization with overlap

---- Real-time Memory Report at c_bands before calling an iterative solver
           247 MiB given to the printing process from OS
           165 MiB allocation reported by mallinfo(arena+hblkhd)
        335181 MiB available memory on the node where the printing process lives
------------------
     ethr =  3.89E-09,  avg # of iterations = 10.5

     total cpu time spent up to now is       17.9 secs

     total energy              =   -1450.93531402 Ry
     estimated scf accuracy    <       0.00000027 Ry

     iteration # 10     ecut=   100.00 Ry     beta= 0.70
     Davidson diagonalization with overlap

---- Real-time Memory Report at c_bands before calling an iterative solver
           247 MiB given to the printing process from OS
           165 MiB allocation reported by mallinfo(arena+hblkhd)
        335163 MiB available memory on the node where the printing process lives
------------------
     ethr =  1.44E-10,  avg # of iterations =  9.2

     total cpu time spent up to now is       19.9 secs

     total energy              =   -1450.93531407 Ry
     estimated scf accuracy    <       0.00000009 Ry

     iteration # 11     ecut=   100.00 Ry     beta= 0.70
     Davidson diagonalization with overlap

---- Real-time Memory Report at c_bands before calling an iterative solver
           247 MiB given to the printing process from OS
           165 MiB allocation reported by mallinfo(arena+hblkhd)
        335159 MiB available memory on the node where the printing process lives
------------------
     ethr =  4.80E-11,  avg # of iterations =  5.5

     total cpu time spent up to now is       21.7 secs

     total energy              =   -1450.93531409 Ry
     estimated scf accuracy    <          4.1E-09 Ry

     iteration # 12     ecut=   100.00 Ry     beta= 0.70
     Davidson diagonalization with overlap

---- Real-time Memory Report at c_bands before calling an iterative solver
           247 MiB given to the printing process from OS
           165 MiB allocation reported by mallinfo(arena+hblkhd)
        335176 MiB available memory on the node where the printing process lives
------------------
     c_bands:  1 eigenvalues not converged
     ethr =  2.14E-12,  avg # of iterations = 11.0

     total cpu time spent up to now is       23.8 secs

     total energy              =   -1450.93531409 Ry
     estimated scf accuracy    <          7.2E-10 Ry

     iteration # 13     ecut=   100.00 Ry     beta= 0.70
     Davidson diagonalization with overlap

---- Real-time Memory Report at c_bands before calling an iterative solver
           247 MiB given to the printing process from OS
           165 MiB allocation reported by mallinfo(arena+hblkhd)
        335192 MiB available memory on the node where the printing process lives
------------------
     ethr =  3.77E-13,  avg # of iterations =  5.1

     total cpu time spent up to now is       24.9 secs

     total energy              =   -1450.93531409 Ry
     estimated scf accuracy    <          5.2E-11 Ry

     iteration # 14     ecut=   100.00 Ry     beta= 0.70
     Davidson diagonalization with overlap

---- Real-time Memory Report at c_bands before calling an iterative solver
           247 MiB given to the printing process from OS
           165 MiB allocation reported by mallinfo(arena+hblkhd)
        335191 MiB available memory on the node where the printing process lives
------------------
     ethr =  1.00E-13,  avg # of iterations =  3.8

     total cpu time spent up to now is       25.9 secs

     total energy              =   -1450.93531409 Ry
     estimated scf accuracy    <          1.1E-12 Ry

     iteration # 15     ecut=   100.00 Ry     beta= 0.70
     Davidson diagonalization with overlap

---- Real-time Memory Report at c_bands before calling an iterative solver
           247 MiB given to the printing process from OS
           165 MiB allocation reported by mallinfo(arena+hblkhd)
        335196 MiB available memory on the node where the printing process lives
------------------
     ethr =  1.00E-13,  avg # of iterations =  1.0

     total cpu time spent up to now is       26.6 secs

     End of self-consistent calculation

          k = 0.0000 0.0000 0.0000 ( 33383 PWs)   bands (ev):

   -47.1484 -47.1483 -46.8826 -46.8826 -46.8826 -46.8826 -24.3024 -24.3012
   -23.7550 -23.7550 -23.7534 -23.7534 -23.6379 -23.6272 -23.1144 -23.1144
   -23.1142 -23.1142 -22.6901 -22.6899 -22.4625 -22.4625 -22.4622 -22.4622
   -16.8240 -16.7826 -16.1663 -16.1551 -16.1332 -16.0607 -15.9887 -15.9887
   -15.9333 -15.9333 -15.4355 -15.3210 -15.3210 -15.3164 -15.2710 -15.2710
     0.6143   0.6252   0.6252   0.6616   0.7171   0.7171   0.7353   1.2247
     1.2474   1.2474   1.3017   1.4635   1.4635   1.5293   1.5981   1.6346
     1.6346   1.6574   1.8047   1.8047   1.9777   1.9777   2.0698   2.1035
     2.1107   2.1107   2.6045   2.6045   2.6296   2.6544   2.6544   2.7849
     2.8324   2.9157   2.9201   2.9201   2.9785   3.0240   3.0240   3.3406
     3.3406   3.4708   3.4708   3.4894   3.5464   3.5464   3.5778   3.5778
     7.2210   7.2884   7.9687   7.9687   8.0405   8.0405   9.5734   9.6386
    10.6820  10.6820  10.7247  10.7247  11.1443  11.2702  11.5956  11.5956
    11.6266  11.6266  11.8546  12.4345  12.4345  12.5031  12.5180  12.5570
    12.5570  12.8406

     occupation numbers 
     1.0000   1.0000   1.0000   1.0000   1.0000   1.0000   1.0000   1.0000
     1.0000   1.0000   1.0000   1.0000   1.0000   1.0000   1.0000   1.0000
     1.0000   1.0000   1.0000   1.0000   1.0000   1.0000   1.0000   1.0000
     1.0000   1.0000   1.0000   1.0000   1.0000   1.0000   1.0000   1.0000
     1.0000   1.0000   1.0000   1.0000   1.0000   1.0000   1.0000   1.0000
     1.0000   1.0000   1.0000   1.0000   1.0000   1.0000   1.0000   1.0000
     1.0000   1.0000   1.0000   1.0000   1.0000   1.0000   1.0000   1.0000
     1.0000   1.0000   1.0000   1.0000   1.0000   1.0000   1.0000   1.0000
     1.0000   1.0000   1.0000   1.0000   1.0000   1.0000   1.0000   1.0000
     1.0000   1.0000   1.0000   1.0000   1.0000   1.0000   1.0000   1.0000
     1.0000   1.0000   1.0000   1.0000   1.0000   1.0000   1.0000   1.0000
     1.0000   1.0000   1.0000   1.0000   1.0000   1.0000   0.0000   0.0000
     0.0000   0.0000   0.0000   0.0000   0.0000   0.0000   0.0000   0.0000
     0.0000   0.0000   0.0000   0.0000   0.0000   0.0000   0.0000   0.0000
     0.0000   0.0000

          k = 0.0000 0.0000 0.1012 ( 33395 PWs)   bands (ev):

   -47.1484 -47.1483 -46.8826 -46.8826 -46.8826 -46.8826 -24.3026 -24.3011
   -23.7549 -23.7549 -23.7535 -23.7535 -23.6372 -23.6279 -23.1148 -23.1148
   -23.1138 -23.1138 -22.6901 -22.6899 -22.4625 -22.4625 -22.4622 -22.4622
   -16.8208 -16.7844 -16.1767 -16.1612 -16.1261 -16.0532 -15.9868 -15.9868
   -15.9356 -15.9355 -15.4291 -15.3221 -15.3184 -15.3184 -15.2732 -15.2732
     0.6162   0.6242   0.6243   0.6361   0.7055   0.7055   0.7878   1.1849
     1.2623   1.2714   1.2714   1.4735   1.4735   1.5361   1.6401   1.6401
     1.6489   1.6719   1.8021   1.8022   1.9667   1.9668   1.9764   2.0869
     2.0869   2.1711   2.6079   2.6079   2.6448   2.6448   2.6716   2.7621
     2.7929   2.9262   2.9262   2.9722   2.9724   3.0362   3.0362   3.3392
     3.3392   3.4610   3.4715   3.4715   3.5481   3.5481   3.5755   3.5755
     7.2228   7.2862   7.9706   7.9706   8.0381   8.0381   9.5778   9.6380
    10.6847  10.6847  10.7217  10.7217  11.1438  11.2926  11.5949  11.5949
    11.6260  11.6260  11.8952  12.4368  12.4368  12.5033  12.5178  12.5555
    12.5555  12.8380

     occupation numbers 
     1.0000   1.0000   1.0000   1.0000   1.0000   1.0000   1.0000   1.0000
     1.0000   1.0000   1.0000   1.0000   1.0000   1.0000   1.0000   1.0000
     1.0000   1.0000   1.0000   1.0000   1.0000   1.0000   1.0000   1.0000
     1.0000   1.0000   1.0000   1.0000   1.0000   1.0000   1.0000   1.0000
     1.0000   1.0000   1.0000   1.0000   1.0000   1.0000   1.0000   1.0000
     1.0000   1.0000   1.0000   1.0000   1.0000   1.0000   1.0000   1.0000
     1.0000   1.0000   1.0000   1.0000   1.0000   1.0000   1.0000   1.0000
     1.0000   1.0000   1.0000   1.0000   1.0000   1.0000   1.0000   1.0000
     1.0000   1.0000   1.0000   1.0000   1.0000   1.0000   1.0000   1.0000
     1.0000   1.0000   1.0000   1.0000   1.0000   1.0000   1.0000   1.0000
     1.0000   1.0000   1.0000   1.0000   1.0000   1.0000   1.0000   1.0000
     1.0000   1.0000   1.0000   1.0000   1.0000   1.0000   0.0000   0.0000
     0.0000   0.0000   0.0000   0.0000   0.0000   0.0000   0.0000   0.0000
     0.0000   0.0000   0.0000   0.0000   0.0000   0.0000   0.0000   0.0000
     0.0000   0.0000

          k = 0.0000 0.0000 0.2024 ( 33433 PWs)   bands (ev):

   -47.1484 -47.1484 -46.8826 -46.8826 -46.8826 -46.8826 -24.3028 -24.3008
   -23.7548 -23.7548 -23.7536 -23.7536 -23.6353 -23.6298 -23.1152 -23.1152
   -23.1134 -23.1134 -22.6901 -22.6900 -22.4624 -22.4624 -22.4622 -22.4622
   -16.8129 -16.7896 -16.1897 -16.1757 -16.1141 -16.0418 -15.9824 -15.9824
   -15.9406 -15.9406 -15.4135 -15.3364 -15.3124 -15.3124 -15.2786 -15.2786
     0.5962   0.6237   0.6238   0.6429   0.6825   0.6826   0.8666   1.1184
     1.1974   1.3230   1.3230   1.4868   1.4868   1.5540   1.6277   1.6589
     1.6589   1.7957   1.7957   1.7978   1.8677   1.9450   1.9451   2.0346
     2.0346   2.2388   2.6043   2.6043   2.6269   2.6379   2.6379   2.7795
     2.8107   2.9393   2.9393   2.9577   3.0471   3.0567   3.0568   3.3368
     3.3369   3.3898   3.4727   3.4728   3.5531   3.5531   3.5693   3.5693
     7.2266   7.2817   7.9751   7.9751   8.0326   8.0326   9.5866   9.6366
    10.6920  10.6920  10.7137  10.7137  11.1514  11.3217  11.5934  11.5934
    11.6248  11.6248  12.0401  12.4417  12.4417  12.5036  12.5173  12.5523
    12.5523  12.6781

     occupation numbers 
     1.0000   1.0000   1.0000   1.0000   1.0000   1.0000   1.0000   1.0000
     1.0000   1.0000   1.0000   1.0000   1.0000   1.0000   1.0000   1.0000
     1.0000   1.0000   1.0000   1.0000   1.0000   1.0000   1.0000   1.0000
     1.0000   1.0000   1.0000   1.0000   1.0000   1.0000   1.0000   1.0000
     1.0000   1.0000   1.0000   1.0000   1.0000   1.0000   1.0000   1.0000
     1.0000   1.0000   1.0000   1.0000   1.0000   1.0000   1.0000   1.0000
     1.0000   1.0000   1.0000   1.0000   1.0000   1.0000   1.0000   1.0000
     1.0000   1.0000   1.0000   1.0000   1.0000   1.0000   1.0000   1.0000
     1.0000   1.0000   1.0000   1.0000   1.0000   1.0000   1.0000   1.0000
     1.0000   1.0000   1.0000   1.0000   1.0000   1.0000   1.0000   1.0000
     1.0000   1.0000   1.0000   1.0000   1.0000   1.0000   1.0000   1.0000
     1.0000   1.0000   1.0000   1.0000   1.0000   1.0000   0.0000   0.0000
     0.0000   0.0000   0.0000   0.0000   0.0000   0.0000   0.0000   0.0000
     0.0000   0.0000   0.0000   0.0000   0.0000   0.0000   0.0000   0.0000
     0.0000   0.0000

          k = 0.0000 0.0000-0.3036 ( 33454 PWs)   bands (ev):

   -47.1484 -47.1484 -46.8826 -46.8826 -46.8826 -46.8826 -24.3029 -24.3007
   -23.7547 -23.7547 -23.7537 -23.7537 -23.6330 -23.6321 -23.1153 -23.1153
   -23.1133 -23.1133 -22.6900 -22.6900 -22.4624 -22.4624 -22.4623 -22.4623
   -16.8067 -16.7945 -16.1950 -16.1821 -16.1090 -16.0372 -15.9797 -15.9797
   -15.9436 -15.9436 -15.4029 -15.3464 -15.3085 -15.3084 -15.2821 -15.2821
     0.5873   0.6247   0.6247   0.6510   0.6706   0.6706   0.9075   1.0869
     1.1661   1.3527   1.3527   1.4877   1.4877   1.5687   1.6113   1.6745
     1.6745   1.7913   1.7913   1.8157   1.8648   1.9349   1.9349   2.0043
     2.0043   2.2672   2.5761   2.5982   2.5982   2.6394   2.6394   2.8100
     2.8210   2.9464   2.9464   2.9490   3.0654   3.0654   3.0957   3.3359
     3.3359   3.3387   3.4733   3.4733   3.5606   3.5606   3.5613   3.5613
     7.2287   7.2792   7.9776   7.9776   8.0295   8.0295   9.5912   9.6358
    10.7003  10.7003  10.7049  10.7049  11.1586  11.3294  11.5927  11.5927
    11.6242  11.6242  12.2747  12.3512  12.4443  12.4443  12.5038  12.5171
    12.5505  12.5505

     occupation numbers 
     1.0000   1.0000   1.0000   1.0000   1.0000   1.0000   1.0000   1.0000
     1.0000   1.0000   1.0000   1.0000   1.0000   1.0000   1.0000   1.0000
     1.0000   1.0000   1.0000   1.0000   1.0000   1.0000   1.0000   1.0000
     1.0000   1.0000   1.0000   1.0000   1.0000   1.0000   1.0000   1.0000
     1.0000   1.0000   1.0000   1.0000   1.0000   1.0000   1.0000   1.0000
     1.0000   1.0000   1.0000   1.0000   1.0000   1.0000   1.0000   1.0000
     1.0000   1.0000   1.0000   1.0000   1.0000   1.0000   1.0000   1.0000
     1.0000   1.0000   1.0000   1.0000   1.0000   1.0000   1.0000   1.0000
     1.0000   1.0000   1.0000   1.0000   1.0000   1.0000   1.0000   1.0000
     1.0000   1.0000   1.0000   1.0000   1.0000   1.0000   1.0000   1.0000
     1.0000   1.0000   1.0000   1.0000   1.0000   1.0000   1.0000   1.0000
     1.0000   1.0000   1.0000   1.0000   1.0000   1.0000   0.0000   0.0000
     0.0000   0.0000   0.0000   0.0000   0.0000   0.0000   0.0000   0.0000
     0.0000   0.0000   0.0000   0.0000   0.0000   0.0000   0.0000   0.0000
     0.0000   0.0000

          k =-0.0962 0.1667-0.0337 ( 33410 PWs)   bands (ev):

   -47.1451 -47.1450 -46.8862 -46.8862 -46.8826 -46.8826 -24.2589 -24.2579
   -23.7459 -23.7444 -23.7182 -23.7166 -23.6223 -23.6122 -23.1369 -23.1358
   -23.1183 -23.1179 -22.7225 -22.7224 -22.5352 -22.5346 -22.4743 -22.4741
   -16.7806 -16.7447 -16.1843 -16.1802 -16.1011 -16.0250 -15.9710 -15.9402
   -15.9221 -15.8831 -15.4535 -15.3625 -15.3591 -15.3169 -15.3093 -15.2898
     0.5872   0.6053   0.6866   0.7651   0.7669   0.8141   0.8912   1.0812
     1.1417   1.1610   1.3701   1.3857   1.5133   1.5666   1.5857   1.6487
     1.7544   1.8036   1.8367   1.8610   1.9106   2.0181   2.0202   2.0930
     2.1272   2.1728   2.5035   2.5955   2.6044   2.6385   2.7013   2.7701
     2.8267   2.8888   2.9010   2.9312   2.9453   3.0202   3.0420   3.2527
     3.3000   3.3014   3.4226   3.4439   3.5169   3.5695   3.6008   3.6266
     7.1865   7.2353   8.0058   8.0069   8.0631   8.0817   9.5143   9.5651
    10.6878  10.6937  10.7262  10.7313  11.2001  11.3576  11.4673  11.5025
    11.5406  11.5812  12.0335  12.2217  12.2473  12.2804  12.4303  12.5699
    12.6559  12.7308

     occupation numbers 
     1.0000   1.0000   1.0000   1.0000   1.0000   1.0000   1.0000   1.0000
     1.0000   1.0000   1.0000   1.0000   1.0000   1.0000   1.0000   1.0000
     1.0000   1.0000   1.0000   1.0000   1.0000   1.0000   1.0000   1.0000
     1.0000   1.0000   1.0000   1.0000   1.0000   1.0000   1.0000   1.0000
     1.0000   1.0000   1.0000   1.0000   1.0000   1.0000   1.0000   1.0000
     1.0000   1.0000   1.0000   1.0000   1.0000   1.0000   1.0000   1.0000
     1.0000   1.0000   1.0000   1.0000   1.0000   1.0000   1.0000   1.0000
     1.0000   1.0000   1.0000   1.0000   1.0000   1.0000   1.0000   1.0000
     1.0000   1.0000   1.0000   1.0000   1.0000   1.0000   1.0000   1.0000
     1.0000   1.0000   1.0000   1.0000   1.0000   1.0000   1.0000   1.0000
     1.0000   1.0000   1.0000   1.0000   1.0000   1.0000   1.0000   1.0000
     1.0000   1.0000   1.0000   1.0000   1.0000   1.0000   0.0000   0.0000
     0.0000   0.0000   0.0000   0.0000   0.0000   0.0000   0.0000   0.0000
     0.0000   0.0000   0.0000   0.0000   0.0000   0.0000   0.0000   0.0000
     0.0000   0.0000

          k =-0.0962 0.1667 0.0675 ( 33416 PWs)   bands (ev):

   -47.1450 -47.1450 -46.8862 -46.8862 -46.8827 -46.8826 -24.2590 -24.2578
   -23.7459 -23.7444 -23.7181 -23.7166 -23.6221 -23.6125 -23.1364 -23.1363
   -23.1188 -23.1174 -22.7225 -22.7224 -22.5352 -22.5347 -22.4743 -22.4741
   -16.7796 -16.7452 -16.1861 -16.1802 -16.1013 -16.0243 -15.9710 -15.9382
   -15.9214 -15.8855 -15.4512 -15.3643 -15.3563 -15.3179 -15.3117 -15.2891
     0.5645   0.6245   0.6902   0.7650   0.7656   0.8093   0.8950   1.0985
     1.1357   1.1536   1.3577   1.3918   1.5064   1.5472   1.6315   1.6620
     1.7649   1.7737   1.7970   1.9009   1.9229   2.0114   2.0301   2.0810
     2.0975   2.1949   2.5222   2.5820   2.5983   2.6096   2.7205   2.7776
     2.7979   2.8923   2.9008   2.9386   2.9449   3.0299   3.0430   3.2672
     3.3025   3.3176   3.4117   3.4233   3.5236   3.5604   3.5998   3.6345
     7.1857   7.2357   8.0056   8.0092   8.0638   8.0788   9.5151   9.5650
    10.6889  10.6953  10.7244  10.7302  11.2010  11.3591  11.4678  11.5019
    11.5406  11.5800  12.0281  12.2231  12.2467  12.2805  12.4646  12.5744
    12.6548  12.7287

     occupation numbers 
     1.0000   1.0000   1.0000   1.0000   1.0000   1.0000   1.0000   1.0000
     1.0000   1.0000   1.0000   1.0000   1.0000   1.0000   1.0000   1.0000
     1.0000   1.0000   1.0000   1.0000   1.0000   1.0000   1.0000   1.0000
     1.0000   1.0000   1.0000   1.0000   1.0000   1.0000   1.0000   1.0000
     1.0000   1.0000   1.0000   1.0000   1.0000   1.0000   1.0000   1.0000
     1.0000   1.0000   1.0000   1.0000   1.0000   1.0000   1.0000   1.0000
     1.0000   1.0000   1.0000   1.0000   1.0000   1.0000   1.0000   1.0000
     1.0000   1.0000   1.0000   1.0000   1.0000   1.0000   1.0000   1.0000
     1.0000   1.0000   1.0000   1.0000   1.0000   1.0000   1.0000   1.0000
     1.0000   1.0000   1.0000   1.0000   1.0000   1.0000   1.0000   1.0000
     1.0000   1.0000   1.0000   1.0000   1.0000   1.0000   1.0000   1.0000
     1.0000   1.0000   1.0000   1.0000   1.0000   1.0000   0.0000   0.0000
     0.0000   0.0000   0.0000   0.0000   0.0000   0.0000   0.0000   0.0000
     0.0000   0.0000   0.0000   0.0000   0.0000   0.0000   0.0000   0.0000
     0.0000   0.0000

          k =-0.0962 0.1667 0.1687 ( 33441 PWs)   bands (ev):

   -47.1450 -47.1450 -46.8862 -46.8862 -46.8827 -46.8826 -24.2593 -24.2575
   -23.7458 -23.7445 -23.7180 -23.7167 -23.6206 -23.6140 -23.1369 -23.1358
   -23.1191 -23.1171 -22.7225 -22.7224 -22.5351 -22.5347 -22.4743 -22.4741
   -16.7738 -16.7488 -16.1926 -16.1871 -16.0986 -16.0183 -15.9666 -15.9338
   -15.9256 -15.8907 -15.4383 -15.3683 -15.3498 -15.3209 -15.3173 -15.2928
     0.5513   0.6195   0.6934   0.7396   0.7584   0.8508   0.8849   1.0935
     1.1475   1.1844   1.3451   1.3813   1.5203   1.5351   1.6507   1.7247
     1.7334   1.7785   1.8091   1.9113   1.9296   1.9453   1.9871   2.0574
     2.1204   2.2428   2.5214   2.5653   2.5681   2.5805   2.6848   2.7844
     2.8063   2.8972   2.9246   2.9518   2.9591   3.0554   3.0653   3.2761
     3.3024   3.3334   3.3604   3.4245   3.5311   3.5544   3.5903   3.6372
     7.1858   7.2341   8.0074   8.0156   8.0617   8.0717   9.5219   9.5628
    10.6951  10.6990  10.7199  10.7233  11.2136  11.3661  11.4666  11.5015
    11.5407  11.5780  12.0844  12.2227  12.2479  12.2820  12.5240  12.5881
    12.6419  12.7131

     occupation numbers 
     1.0000   1.0000   1.0000   1.0000   1.0000   1.0000   1.0000   1.0000
     1.0000   1.0000   1.0000   1.0000   1.0000   1.0000   1.0000   1.0000
     1.0000   1.0000   1.0000   1.0000   1.0000   1.0000   1.0000   1.0000
     1.0000   1.0000   1.0000   1.0000   1.0000   1.0000   1.0000   1.0000
     1.0000   1.0000   1.0000   1.0000   1.0000   1.0000   1.0000   1.0000
     1.0000   1.0000   1.0000   1.0000   1.0000   1.0000   1.0000   1.0000
     1.0000   1.0000   1.0000   1.0000   1.0000   1.0000   1.0000   1.0000
     1.0000   1.0000   1.0000   1.0000   1.0000   1.0000   1.0000   1.0000
     1.0000   1.0000   1.0000   1.0000   1.0000   1.0000   1.0000   1.0000
     1.0000   1.0000   1.0000   1.0000   1.0000   1.0000   1.0000   1.0000
     1.0000   1.0000   1.0000   1.0000   1.0000   1.0000   1.0000   1.0000
     1.0000   1.0000   1.0000   1.0000   1.0000   1.0000   0.0000   0.0000
     0.0000   0.0000   0.0000   0.0000   0.0000   0.0000   0.0000   0.0000
     0.0000   0.0000   0.0000   0.0000   0.0000   0.0000   0.0000   0.0000
     0.0000   0.0000

          k =-0.0962 0.1667-0.3374 ( 33453 PWs)   bands (ev):

   -47.1450 -47.1450 -46.8862 -46.8862 -46.8827 -46.8826 -24.2595 -24.2573
   -23.7457 -23.7447 -23.7179 -23.7168 -23.6184 -23.6163 -23.1373 -23.1354
   -23.1192 -23.1171 -22.7225 -22.7224 -22.5350 -22.5348 -22.4743 -22.4741
   -16.7667 -16.7540 -16.1963 -16.1946 -16.0954 -16.0135 -15.9611 -15.9318
   -15.9314 -15.8935 -15.4246 -15.3748 -15.3458 -15.3209 -15.3206 -15.2984
     0.5501   0.6101   0.6997   0.7106   0.7682   0.8301   0.9352   1.0351
     1.1798   1.2591   1.3205   1.3600   1.5294   1.5382   1.6329   1.7255
     1.7508   1.8178   1.8319   1.8778   1.8913   1.9317   1.9805   2.0563
     2.1213   2.2772   2.5067   2.5322   2.5660   2.5794   2.6234   2.7863
     2.8596   2.8904   2.9140   2.9755   3.0035   3.0645   3.0810   3.2684
     3.2876   3.3003   3.3806   3.4249   3.5290   3.5561   3.5847   3.6332
     7.1866   7.2322   8.0096   8.0201   8.0587   8.0671   9.5285   9.5600
    10.7017  10.7043  10.7135  10.7165  11.2287  11.3661  11.4651  11.5019
    11.5407  11.5770  12.1618  12.2211  12.2495  12.2922  12.6044  12.6075
    12.6230  12.6526

     occupation numbers 
     1.0000   1.0000   1.0000   1.0000   1.0000   1.0000   1.0000   1.0000
     1.0000   1.0000   1.0000   1.0000   1.0000   1.0000   1.0000   1.0000
     1.0000   1.0000   1.0000   1.0000   1.0000   1.0000   1.0000   1.0000
     1.0000   1.0000   1.0000   1.0000   1.0000   1.0000   1.0000   1.0000
     1.0000   1.0000   1.0000   1.0000   1.0000   1.0000   1.0000   1.0000
     1.0000   1.0000   1.0000   1.0000   1.0000   1.0000   1.0000   1.0000
     1.0000   1.0000   1.0000   1.0000   1.0000   1.0000   1.0000   1.0000
     1.0000   1.0000   1.0000   1.0000   1.0000   1.0000   1.0000   1.0000
     1.0000   1.0000   1.0000   1.0000   1.0000   1.0000   1.0000   1.0000
     1.0000   1.0000   1.0000   1.0000   1.0000   1.0000   1.0000   1.0000
     1.0000   1.0000   1.0000   1.0000   1.0000   1.0000   1.0000   1.0000
     1.0000   1.0000   1.0000   1.0000   1.0000   1.0000   0.0000   0.0000
     0.0000   0.0000   0.0000   0.0000   0.0000   0.0000   0.0000   0.0000
     0.0000   0.0000   0.0000   0.0000   0.0000   0.0000   0.0000   0.0000
     0.0000   0.0000

          k =-0.0962 0.1667-0.2362 ( 33477 PWs)   bands (ev):

   -47.1450 -47.1450 -46.8862 -46.8862 -46.8827 -46.8826 -24.2594 -24.2574
   -23.7457 -23.7447 -23.7179 -23.7168 -23.6192 -23.6155 -23.1374 -23.1352
   -23.1189 -23.1173 -22.7225 -22.7224 -22.5350 -22.5348 -22.4743 -22.4741
   -16.7687 -16.7524 -16.1959 -16.1932 -16.0955 -16.0140 -15.9603 -15.9342
   -15.9332 -15.8903 -15.4286 -15.3712 -15.3503 -15.3192 -15.3169 -15.2996
     0.5569   0.6097   0.6905   0.7170   0.7941   0.8018   0.9363   1.0293
     1.1656   1.2653   1.3310   1.3735   1.5175   1.5642   1.6135   1.6875
     1.7772   1.8136   1.8294   1.8512   1.8921   1.9699   1.9720   2.0887
     2.0934   2.2687   2.4874   2.5386   2.5905   2.5923   2.6428   2.7757
     2.8259   2.8928   2.9271   2.9952   3.0241   3.0331   3.0829   3.2235
     3.2877   3.2980   3.4187   3.4242   3.5193   3.5651   3.5887   3.6254
     7.1875   7.2317   8.0099   8.0168   8.0579   8.0711   9.5275   9.5602
    10.6988  10.7007  10.7172  10.7195  11.2262  11.3667  11.4650  11.5023
    11.5406  11.5782  12.1830  12.2199  12.2500  12.3015  12.4451  12.5936
    12.6307  12.7153

     occupation numbers 
     1.0000   1.0000   1.0000   1.0000   1.0000   1.0000   1.0000   1.0000
     1.0000   1.0000   1.0000   1.0000   1.0000   1.0000   1.0000   1.0000
     1.0000   1.0000   1.0000   1.0000   1.0000   1.0000   1.0000   1.0000
     1.0000   1.0000   1.0000   1.0000   1.0000   1.0000   1.0000   1.0000
     1.0000   1.0000   1.0000   1.0000   1.0000   1.0000   1.0000   1.0000
     1.0000   1.0000   1.0000   1.0000   1.0000   1.0000   1.0000   1.0000
     1.0000   1.0000   1.0000   1.0000   1.0000   1.0000   1.0000   1.0000
     1.0000   1.0000   1.0000   1.0000   1.0000   1.0000   1.0000   1.0000
     1.0000   1.0000   1.0000   1.0000   1.0000   1.0000   1.0000   1.0000
     1.0000   1.0000   1.0000   1.0000   1.0000   1.0000   1.0000   1.0000
     1.0000   1.0000   1.0000   1.0000   1.0000   1.0000   1.0000   1.0000
     1.0000   1.0000   1.0000   1.0000   1.0000   1.0000   0.0000   0.0000
     0.0000   0.0000   0.0000   0.0000   0.0000   0.0000   0.0000   0.0000
     0.0000   0.0000   0.0000   0.0000   0.0000   0.0000   0.0000   0.0000
     0.0000   0.0000

          k =-0.0962 0.1667-0.1350 ( 33441 PWs)   bands (ev):

   -47.1450 -47.1450 -46.8862 -46.8862 -46.8827 -46.8826 -24.2592 -24.2576
   -23.7458 -23.7445 -23.7181 -23.7166 -23.6213 -23.6134 -23.1373 -23.1354
   -23.1185 -23.1177 -22.7225 -22.7224 -22.5351 -22.5347 -22.4743 -22.4741
   -16.7761 -16.7473 -16.1906 -16.1855 -16.0986 -16.0193 -15.9661 -15.9384
   -15.9275 -15.8852 -15.4438 -15.3636 -15.3566 -15.3187 -15.3114 -15.2945
     0.5752   0.6063   0.6846   0.7421   0.7763   0.8271   0.8917   1.0661
     1.1478   1.1964   1.3684   1.3829   1.5079   1.5888   1.6089   1.6376
     1.7716   1.8160   1.8409   1.8413   1.8803   1.9948   2.0071   2.0961
     2.1009   2.2226   2.4843   2.5735   2.5990   2.6301   2.7247   2.7621
     2.7652   2.8998   2.9210   2.9804   2.9814   3.0088   3.0684   3.2301
     3.2922   3.2976   3.4231   3.4447   3.5151   3.5729   3.5951   3.6210
     7.1874   7.2333   8.0078   8.0102   8.0602   8.0784   9.5202   9.5631
    10.6921  10.6949  10.7241  10.7264  11.2104  11.3650  11.4661  11.5026
    11.5405  11.5802  12.1056  12.2201  12.2489  12.2829  12.4094  12.5769
    12.6466  12.7272

     occupation numbers 
     1.0000   1.0000   1.0000   1.0000   1.0000   1.0000   1.0000   1.0000
     1.0000   1.0000   1.0000   1.0000   1.0000   1.0000   1.0000   1.0000
     1.0000   1.0000   1.0000   1.0000   1.0000   1.0000   1.0000   1.0000
     1.0000   1.0000   1.0000   1.0000   1.0000   1.0000   1.0000   1.0000
     1.0000   1.0000   1.0000   1.0000   1.0000   1.0000   1.0000   1.0000
     1.0000   1.0000   1.0000   1.0000   1.0000   1.0000   1.0000   1.0000
     1.0000   1.0000   1.0000   1.0000   1.0000   1.0000   1.0000   1.0000
     1.0000   1.0000   1.0000   1.0000   1.0000   1.0000   1.0000   1.0000
     1.0000   1.0000   1.0000   1.0000   1.0000   1.0000   1.0000   1.0000
     1.0000   1.0000   1.0000   1.0000   1.0000   1.0000   1.0000   1.0000
     1.0000   1.0000   1.0000   1.0000   1.0000   1.0000   1.0000   1.0000
     1.0000   1.0000   1.0000   1.0000   1.0000   1.0000   0.0000   0.0000
     0.0000   0.0000   0.0000   0.0000   0.0000   0.0000   0.0000   0.0000
     0.0000   0.0000   0.0000   0.0000   0.0000   0.0000   0.0000   0.0000
     0.0000   0.0000

          k =-0.1925 0.3333-0.0675 ( 33422 PWs)   bands (ev):

   -47.1381 -47.1380 -46.8936 -46.8936 -46.8827 -46.8827 -24.1659 -24.1654
   -23.7168 -23.7156 -23.6317 -23.6301 -23.5864 -23.5781 -23.1892 -23.1873
   -23.1313 -23.1308 -22.8017 -22.8015 -22.6931 -22.6923 -22.4911 -22.4908
   -16.6814 -16.6582 -16.2468 -16.2432 -16.0332 -16.0092 -15.8713 -15.8343
   -15.8150 -15.7520 -15.5352 -15.4783 -15.4636 -15.4169 -15.3180 -15.3127
     0.5359   0.5609   0.7508   0.8218   0.9068   0.9626   1.1601   1.2040
     1.2528   1.2942   1.2965   1.3637   1.4886   1.5843   1.6216   1.7207
     1.7467   1.8056   1.8158   1.8354   1.8588   1.9619   2.0426   2.0761
     2.2179   2.3211   2.3804   2.4504   2.5655   2.6752   2.7198   2.7848
     2.8036   2.8172   2.8397   2.9045   2.9373   2.9962   3.0031   3.0900
     3.1478   3.2449   3.3317   3.3697   3.4840   3.5618   3.6039   3.6821
     7.1124   7.1236   8.0889   8.0901   8.1118   8.1647   9.3902   9.4158
    10.6780  10.7161  10.7244  10.7416  11.1849  11.2297  11.3810  11.3897
    11.4297  11.4979  11.8986  11.9888  12.0032  12.0916  12.5033  12.5798
    12.6127  12.6590

     occupation numbers 
     1.0000   1.0000   1.0000   1.0000   1.0000   1.0000   1.0000   1.0000
     1.0000   1.0000   1.0000   1.0000   1.0000   1.0000   1.0000   1.0000
     1.0000   1.0000   1.0000   1.0000   1.0000   1.0000   1.0000   1.0000
     1.0000   1.0000   1.0000   1.0000   1.0000   1.0000   1.0000   1.0000
     1.0000   1.0000   1.0000   1.0000   1.0000   1.0000   1.0000   1.0000
     1.0000   1.0000   1.0000   1.0000   1.0000   1.0000   1.0000   1.0000
     1.0000   1.0000   1.0000   1.0000   1.0000   1.0000   1.0000   1.0000
     1.0000   1.0000   1.0000   1.0000   1.0000   1.0000   1.0000   1.0000
     1.0000   1.0000   1.0000   1.0000   1.0000   1.0000   1.0000   1.0000
     1.0000   1.0000   1.0000   1.0000   1.0000   1.0000   1.0000   1.0000
     1.0000   1.0000   1.0000   1.0000   1.0000   1.0000   1.0000   1.0000
     1.0000   1.0000   1.0000   1.0000   1.0000   1.0000   0.2717   0.0744
     0.0000   0.0000   0.0000   0.0000   0.0000   0.0000   0.0000   0.0000
     0.0000   0.0000   0.0000   0.0000   0.0000   0.0000   0.0000   0.0000
     0.0000   0.0000

          k =-0.1925 0.3333 0.0337 ( 33410 PWs)   bands (ev):

   -47.1381 -47.1380 -46.8936 -46.8936 -46.8827 -46.8827 -24.1660 -24.1653
   -23.7170 -23.7155 -23.6317 -23.6301 -23.5865 -23.5780 -23.1888 -23.1877
   -23.1318 -23.1303 -22.8017 -22.8015 -22.6931 -22.6922 -22.4911 -22.4908
   -16.6821 -16.6581 -16.2461 -16.2413 -16.0356 -16.0110 -15.8651 -15.8376
   -15.8132 -15.7546 -15.5355 -15.4807 -15.4602 -15.4195 -15.3158 -15.3129
     0.5156   0.5774   0.7473   0.8515   0.8869   0.9756   1.1475   1.1744
     1.2224   1.3006   1.3293   1.3982   1.4928   1.5587   1.6526   1.6790
     1.7458   1.7713   1.8127   1.8659   1.9311   1.9567   2.0335   2.0440
     2.2259   2.2806   2.4431   2.4557   2.5635   2.6528   2.6954   2.7817
     2.7923   2.8245   2.8323   2.8943   2.9240   2.9953   3.0046   3.1303
     3.1763   3.2451   3.3332   3.3371   3.4894   3.5633   3.6014   3.6885
     7.1061   7.1299   8.0871   8.0949   8.1141   8.1595   9.3885   9.4173
    10.6795  10.7191  10.7228  10.7392  11.1871  11.2303  11.3702  11.3905
    11.4281  11.4980  11.9226  11.9910  12.0011  12.0565  12.4852  12.5791
    12.5996  12.6635

     occupation numbers 
     1.0000   1.0000   1.0000   1.0000   1.0000   1.0000   1.0000   1.0000
     1.0000   1.0000   1.0000   1.0000   1.0000   1.0000   1.0000   1.0000
     1.0000   1.0000   1.0000   1.0000   1.0000   1.0000   1.0000   1.0000
     1.0000   1.0000   1.0000   1.0000   1.0000   1.0000   1.0000   1.0000
     1.0000   1.0000   1.0000   1.0000   1.0000   1.0000   1.0000   1.0000
     1.0000   1.0000   1.0000   1.0000   1.0000   1.0000   1.0000   1.0000
     1.0000   1.0000   1.0000   1.0000   1.0000   1.0000   1.0000   1.0000
     1.0000   1.0000   1.0000   1.0000   1.0000   1.0000   1.0000   1.0000
     1.0000   1.0000   1.0000   1.0000   1.0000   1.0000   1.0000   1.0000
     1.0000   1.0000   1.0000   1.0000   1.0000   1.0000   1.0000   1.0000
     1.0000   1.0000   1.0000   1.0000   1.0000   1.0000   1.0000   1.0000
     1.0000   1.0000   1.0000   1.0000   1.0000   1.0000   0.2909   0.0679
     0.0000   0.0000   0.0000   0.0000   0.0000   0.0000   0.0000   0.0000
     0.0000   0.0000   0.0000   0.0000   0.0000   0.0000   0.0000   0.0000
     0.0000   0.0000

          k =-0.1925 0.3333 0.1350 ( 33430 PWs)   bands (ev):

   -47.1381 -47.1380 -46.8936 -46.8936 -46.8827 -46.8827 -24.1664 -24.1649
   -23.7170 -23.7155 -23.6317 -23.6302 -23.5856 -23.5790 -23.1883 -23.1882
   -23.1321 -23.1300 -22.8017 -22.8015 -22.6931 -22.6922 -22.4910 -22.4908
   -16.6791 -16.6600 -16.2467 -16.2421 -16.0397 -16.0086 -15.8595 -15.8436
   -15.8097 -15.7595 -15.5261 -15.4851 -15.4526 -15.4258 -15.3175 -15.3137
     0.5028   0.5829   0.7342   0.8489   0.8826   1.0077   1.1195   1.1712
     1.2271   1.3119   1.3358   1.4502   1.5080   1.5283   1.6554   1.6576
     1.7359   1.7854   1.8173   1.8863   1.8969   1.9356   2.0508   2.1048
     2.2255   2.2283   2.4582   2.4712   2.5138   2.6383   2.6502   2.7776
     2.7948   2.8216   2.8458   2.9055   2.9411   2.9864   3.0094   3.1324
     3.2296   3.2435   3.2995   3.3452   3.4986   3.5589   3.5947   3.6949
     7.1014   7.1331   8.0838   8.1057   8.1180   8.1487   9.3911   9.4159
    10.6861  10.7156  10.7206  10.7372  11.1963  11.2291  11.3740  11.3936
    11.4241  11.4892  11.9517  11.9920  11.9996  12.0029  12.4961  12.5781
    12.5868  12.6608

     occupation numbers 
     1.0000   1.0000   1.0000   1.0000   1.0000   1.0000   1.0000   1.0000
     1.0000   1.0000   1.0000   1.0000   1.0000   1.0000   1.0000   1.0000
     1.0000   1.0000   1.0000   1.0000   1.0000   1.0000   1.0000   1.0000
     1.0000   1.0000   1.0000   1.0000   1.0000   1.0000   1.0000   1.0000
     1.0000   1.0000   1.0000   1.0000   1.0000   1.0000   1.0000   1.0000
     1.0000   1.0000   1.0000   1.0000   1.0000   1.0000   1.0000   1.0000
     1.0000   1.0000   1.0000   1.0000   1.0000   1.0000   1.0000   1.0000
     1.0000   1.0000   1.0000   1.0000   1.0000   1.0000   1.0000   1.0000
     1.0000   1.0000   1.0000   1.0000   1.0000   1.0000   1.0000   1.0000
     1.0000   1.0000   1.0000   1.0000   1.0000   1.0000   1.0000   1.0000
     1.0000   1.0000   1.0000   1.0000   1.0000   1.0000   1.0000   1.0000
     1.0000   1.0000   1.0000   1.0000   1.0000   1.0000   0.2612   0.0736
     0.0000   0.0000   0.0000   0.0000   0.0000   0.0000   0.0000   0.0000
     0.0000   0.0000   0.0000   0.0000   0.0000   0.0000   0.0000   0.0000
     0.0000   0.0000

          k =-0.1925 0.3333-0.3711 ( 33437 PWs)   bands (ev):

   -47.1380 -47.1380 -46.8936 -46.8936 -46.8827 -46.8827 -24.1666 -24.1646
   -23.7169 -23.7156 -23.6316 -23.6302 -23.5839 -23.5806 -23.1889 -23.1876
   -23.1322 -23.1299 -22.8016 -22.8015 -22.6930 -22.6923 -22.4910 -22.4909
   -16.6744 -16.6630 -16.2481 -16.2447 -16.0412 -16.0048 -15.8636 -15.8429
   -15.8080 -15.7618 -15.5141 -15.4895 -15.4477 -15.4301 -15.3210 -15.3145
     0.5026   0.5797   0.7235   0.8313   0.8780   1.0224   1.1468   1.1603
     1.2473   1.3310   1.3618   1.3909   1.4999   1.5688   1.6343   1.6453
     1.7791   1.7989   1.8187   1.8271   1.9058   1.9388   2.0534   2.1143
     2.2160   2.2524   2.4336   2.4563   2.4842   2.6270   2.6428   2.7808
     2.7987   2.8104   2.8665   2.9288   2.9499   2.9988   3.0105   3.1260
     3.1908   3.2420   3.3379   3.3479   3.5048   3.5506   3.5900   3.6954
     7.1007   7.1324   8.0821   8.1122   8.1196   8.1424   9.3966   9.4120
    10.6942  10.7068  10.7183  10.7383  11.2031  11.2271  11.3939  11.3964
    11.4213  11.4757  11.9308  11.9901  12.0011  12.0117  12.5127  12.5681
    12.5973  12.6511

     occupation numbers 
     1.0000   1.0000   1.0000   1.0000   1.0000   1.0000   1.0000   1.0000
     1.0000   1.0000   1.0000   1.0000   1.0000   1.0000   1.0000   1.0000
     1.0000   1.0000   1.0000   1.0000   1.0000   1.0000   1.0000   1.0000
     1.0000   1.0000   1.0000   1.0000   1.0000   1.0000   1.0000   1.0000
     1.0000   1.0000   1.0000   1.0000   1.0000   1.0000   1.0000   1.0000
     1.0000   1.0000   1.0000   1.0000   1.0000   1.0000   1.0000   1.0000
     1.0000   1.0000   1.0000   1.0000   1.0000   1.0000   1.0000   1.0000
     1.0000   1.0000   1.0000   1.0000   1.0000   1.0000   1.0000   1.0000
     1.0000   1.0000   1.0000   1.0000   1.0000   1.0000   1.0000   1.0000
     1.0000   1.0000   1.0000   1.0000   1.0000   1.0000   1.0000   1.0000
     1.0000   1.0000   1.0000   1.0000   1.0000   1.0000   1.0000   1.0000
     1.0000   1.0000   1.0000   1.0000   1.0000   1.0000   0.2057   0.0928
     0.0000   0.0000   0.0000   0.0000   0.0000   0.0000   0.0000   0.0000
     0.0000   0.0000   0.0000   0.0000   0.0000   0.0000   0.0000   0.0000
     0.0000   0.0000

          k =-0.1925 0.3333-0.2699 ( 33436 PWs)   bands (ev):

   -47.1380 -47.1380 -46.8936 -46.8936 -46.8827 -46.8827 -24.1666 -24.1647
   -23.7167 -23.7157 -23.6316 -23.6303 -23.5837 -23.5809 -23.1893 -23.1872
   -23.1319 -23.1302 -22.8016 -22.8015 -22.6929 -22.6925 -22.4910 -22.4908
   -16.6734 -16.6634 -16.2490 -16.2465 -16.0390 -16.0029 -15.8708 -15.8386
   -15.8103 -15.7588 -15.5148 -15.4860 -15.4537 -15.4248 -15.3226 -15.3148
     0.5131   0.5744   0.7230   0.8385   0.8503   1.0202   1.1478   1.2039
     1.2678   1.3000   1.3298   1.4203   1.5013   1.5605   1.6327   1.6529
     1.7109   1.8084   1.8160   1.8630   1.8844   1.9919   2.0503   2.0830
     2.2078   2.3077   2.3627   2.4682   2.4805   2.6399   2.6683   2.7810
     2.7873   2.8203   2.9037   2.9219   2.9393   3.0108   3.0334   3.0891
     3.1449   3.2415   3.3429   3.3771   3.4978   3.5500   3.5915   3.6900
     7.1047   7.1284   8.0832   8.1034   8.1179   8.1514   9.4002   9.4085
    10.6900  10.7110  10.7152  10.7408  11.1993  11.2276  11.3951  11.4104
    11.4235  11.4708  11.8987  11.9880  12.0031  12.0519  12.5217  12.5832
    12.5999  12.6446

     occupation numbers 
     1.0000   1.0000   1.0000   1.0000   1.0000   1.0000   1.0000   1.0000
     1.0000   1.0000   1.0000   1.0000   1.0000   1.0000   1.0000   1.0000
     1.0000   1.0000   1.0000   1.0000   1.0000   1.0000   1.0000   1.0000
     1.0000   1.0000   1.0000   1.0000   1.0000   1.0000   1.0000   1.0000
     1.0000   1.0000   1.0000   1.0000   1.0000   1.0000   1.0000   1.0000
     1.0000   1.0000   1.0000   1.0000   1.0000   1.0000   1.0000   1.0000
     1.0000   1.0000   1.0000   1.0000   1.0000   1.0000   1.0000   1.0000
     1.0000   1.0000   1.0000   1.0000   1.0000   1.0000   1.0000   1.0000
     1.0000   1.0000   1.0000   1.0000   1.0000   1.0000   1.0000   1.0000
     1.0000   1.0000   1.0000   1.0000   1.0000   1.0000   1.0000   1.0000
     1.0000   1.0000   1.0000   1.0000   1.0000   1.0000   1.0000   1.0000
     1.0000   1.0000   1.0000   1.0000   1.0000   1.0000   0.1733   0.1126
     0.0000   0.0000   0.0000   0.0000   0.0000   0.0000   0.0000   0.0000
     0.0000   0.0000   0.0000   0.0000   0.0000   0.0000   0.0000   0.0000
     0.0000   0.0000

          k =-0.1925 0.3333-0.1687 ( 33431 PWs)   bands (ev):

   -47.1380 -47.1380 -46.8936 -46.8936 -46.8827 -46.8827 -24.1663 -24.1649
   -23.7167 -23.7157 -23.6316 -23.6302 -23.5853 -23.5793 -23.1894 -23.1871
   -23.1314 -23.1307 -22.8016 -22.8015 -22.6929 -22.6924 -22.4911 -22.4908
   -16.6777 -16.6602 -16.2482 -16.2458 -16.0352 -16.0049 -15.8737 -15.8352
   -15.8137 -15.7540 -15.5260 -15.4798 -15.4610 -15.4189 -15.3211 -15.3139
     0.5310   0.5638   0.7357   0.8256   0.8682   1.0025   1.1438   1.2418
     1.2546   1.2867   1.2954   1.4079   1.5071   1.5509   1.6174   1.6980
     1.7335   1.7830   1.8165   1.8465   1.8790   1.9732   2.0462   2.1098
     2.2091   2.3114   2.3509   2.4532   2.5274   2.6569   2.7189   2.7678
     2.7923   2.8337   2.8768   2.9264   2.9484   3.0087   3.0092   3.0621
     3.1396   3.2428   3.3349   3.3871   3.4869   3.5564   3.5986   3.6832
     7.1117   7.1228   8.0865   8.0934   8.1141   8.1615   9.3954   9.4120
    10.6819  10.7143  10.7198  10.7423  11.1907  11.2287  11.3917  11.3992
    11.4277  11.4863  11.8887  11.9875  12.0040  12.0848  12.5248  12.5893
    12.6056  12.6503

     occupation numbers 
     1.0000   1.0000   1.0000   1.0000   1.0000   1.0000   1.0000   1.0000
     1.0000   1.0000   1.0000   1.0000   1.0000   1.0000   1.0000   1.0000
     1.0000   1.0000   1.0000   1.0000   1.0000   1.0000   1.0000   1.0000
     1.0000   1.0000   1.0000   1.0000   1.0000   1.0000   1.0000   1.0000
     1.0000   1.0000   1.0000   1.0000   1.0000   1.0000   1.0000   1.0000
     1.0000   1.0000   1.0000   1.0000   1.0000   1.0000   1.0000   1.0000
     1.0000   1.0000   1.0000   1.0000   1.0000   1.0000   1.0000   1.0000
     1.0000   1.0000   1.0000   1.0000   1.0000   1.0000   1.0000   1.0000
     1.0000   1.0000   1.0000   1.0000   1.0000   1.0000   1.0000   1.0000
     1.0000   1.0000   1.0000   1.0000   1.0000   1.0000   1.0000   1.0000
     1.0000   1.0000   1.0000   1.0000   1.0000   1.0000   1.0000   1.0000
     1.0000   1.0000   1.0000   1.0000   1.0000   1.0000   0.2166   0.0928
     0.0000   0.0000   0.0000   0.0000   0.0000   0.0000   0.0000   0.0000
     0.0000   0.0000   0.0000   0.0000   0.0000   0.0000   0.0000   0.0000
     0.0000   0.0000

          k = 0.2887-0.5000 0.1012 ( 33406 PWs)   bands (ev):

   -47.1344 -47.1343 -46.8975 -46.8975 -46.8827 -46.8827 -24.1168 -24.1168
   -23.6915 -23.6906 -23.5782 -23.5767 -23.5648 -23.5580 -23.2224 -23.2203
   -23.1436 -23.1432 -22.8480 -22.8477 -22.7808 -22.7801 -22.4969 -22.4966
   -16.6190 -16.6043 -16.2925 -16.2853 -16.0115 -16.0102 -15.7667 -15.7004
   -15.6896 -15.6390 -15.6134 -15.6133 -15.5675 -15.5445 -15.3247 -15.3115
     0.4864   0.5060   0.7162   0.8594   1.0964   1.2174   1.2333   1.2364
     1.3625   1.4050   1.4289   1.4391   1.4833   1.5100   1.5404   1.5521
     1.7109   1.7478   1.7839   1.8469   1.8607   1.9638   2.1226   2.1645
     2.1977   2.2222   2.3522   2.4134   2.4640   2.6491   2.6869   2.7113
     2.7663   2.8322   2.8420   2.9050   2.9566   2.9728   3.0185   3.0895
     3.1370   3.2157   3.2905   3.3282   3.4623   3.5217   3.6110   3.7052
     7.0603   7.0774   8.1364   8.1367   8.1385   8.2059   9.3268   9.3364
    10.6534  10.7014  10.7274  10.7500  11.0742  11.1053  11.3070  11.3289
    11.4475  11.6137  11.8106  11.8190  11.9233  11.9313  12.4808  12.5478
    12.5813  12.6560

     occupation numbers 
     1.0000   1.0000   1.0000   1.0000   1.0000   1.0000   1.0000   1.0000
     1.0000   1.0000   1.0000   1.0000   1.0000   1.0000   1.0000   1.0000
     1.0000   1.0000   1.0000   1.0000   1.0000   1.0000   1.0000   1.0000
     1.0000   1.0000   1.0000   1.0000   1.0000   1.0000   1.0000   1.0000
     1.0000   1.0000   1.0000   1.0000   1.0000   1.0000   1.0000   1.0000
     1.0000   1.0000   1.0000   1.0000   1.0000   1.0000   1.0000   1.0000
     1.0000   1.0000   1.0000   1.0000   1.0000   1.0000   1.0000   1.0000
     1.0000   1.0000   1.0000   1.0000   1.0000   1.0000   1.0000   1.0000
     1.0000   1.0000   1.0000   1.0000   1.0000   1.0000   1.0000   1.0000
     1.0000   1.0000   1.0000   1.0000   1.0000   1.0000   1.0000   1.0000
     1.0000   1.0000   1.0000   1.0000   1.0000   1.0000   1.0000   1.0000
     1.0000   1.0000   1.0000   1.0000   1.0000   1.0000   1.0437   0.9798
     0.0000   0.0000   0.0000   0.0000   0.0000   0.0000   0.0000   0.0000
     0.0000   0.0000   0.0000   0.0000   0.0000   0.0000   0.0000   0.0000
     0.0000   0.0000

          k = 0.2887-0.5000 0.2024 ( 33424 PWs)   bands (ev):

   -47.1344 -47.1344 -46.8975 -46.8975 -46.8827 -46.8827 -24.1172 -24.1163
   -23.6916 -23.6905 -23.5783 -23.5767 -23.5645 -23.5583 -23.2223 -23.2204
   -23.1441 -23.1428 -22.8480 -22.8477 -22.7808 -22.7800 -22.4969 -22.4966
   -16.6183 -16.6051 -16.2919 -16.2849 -16.0154 -16.0081 -15.7660 -15.7004
   -15.6889 -15.6397 -15.6132 -15.6131 -15.5676 -15.5444 -15.3239 -15.3123
     0.4851   0.5020   0.7134   0.8715   1.0834   1.1824   1.2144   1.2953
     1.3491   1.4026   1.4233   1.4596   1.4887   1.5103   1.5575   1.5754
     1.7175   1.7321   1.7906   1.8422   1.8535   1.9382   2.1450   2.1503
     2.2135   2.2263   2.2888   2.4317   2.4712   2.6440   2.7011   2.7172
     2.7723   2.8281   2.8430   2.8844   2.9506   2.9614   3.0270   3.0809
     3.1561   3.2132   3.2973   3.3316   3.4642   3.5200   3.6092   3.7090
     7.0596   7.0778   8.1315   8.1412   8.1437   8.2015   9.3274   9.3362
    10.6562  10.6982  10.7279  10.7496  11.0760  11.1052  11.3082  11.3277
    11.4540  11.5983  11.8110  11.8279  11.9236  11.9309  12.4690  12.5345
    12.5820  12.6562

     occupation numbers 
     1.0000   1.0000   1.0000   1.0000   1.0000   1.0000   1.0000   1.0000
     1.0000   1.0000   1.0000   1.0000   1.0000   1.0000   1.0000   1.0000
     1.0000   1.0000   1.0000   1.0000   1.0000   1.0000   1.0000   1.0000
     1.0000   1.0000   1.0000   1.0000   1.0000   1.0000   1.0000   1.0000
     1.0000   1.0000   1.0000   1.0000   1.0000   1.0000   1.0000   1.0000
     1.0000   1.0000   1.0000   1.0000   1.0000   1.0000   1.0000   1.0000
     1.0000   1.0000   1.0000   1.0000   1.0000   1.0000   1.0000   1.0000
     1.0000   1.0000   1.0000   1.0000   1.0000   1.0000   1.0000   1.0000
     1.0000   1.0000   1.0000   1.0000   1.0000   1.0000   1.0000   1.0000
     1.0000   1.0000   1.0000   1.0000   1.0000   1.0000   1.0000   1.0000
     1.0000   1.0000   1.0000   1.0000   1.0000   1.0000   1.0000   1.0000
     1.0000   1.0000   1.0000   1.0000   1.0000   1.0000   1.0407   0.9808
     0.0000   0.0000   0.0000   0.0000   0.0000   0.0000   0.0000   0.0000
     0.0000   0.0000   0.0000   0.0000   0.0000   0.0000   0.0000   0.0000
     0.0000   0.0000

          k = 0.2887-0.5000 0.3036 ( 33467 PWs)   bands (ev):

   -47.1344 -47.1344 -46.8975 -46.8975 -46.8827 -46.8827 -24.1176 -24.1160
   -23.6918 -23.6903 -23.5783 -23.5767 -23.5638 -23.5591 -23.2219 -23.2208
   -23.1445 -23.1424 -22.8479 -22.8477 -22.7809 -22.7800 -22.4969 -22.4967
   -16.6165 -16.6070 -16.2907 -16.2842 -16.0199 -16.0073 -15.7646 -15.7005
   -15.6876 -15.6410 -15.6131 -15.6125 -15.5678 -15.5443 -15.3220 -15.3144
     0.4831   0.4937   0.7086   0.8972   1.0637   1.1462   1.2086   1.2964
     1.3437   1.4005   1.4670   1.4950   1.4999   1.5030   1.5762   1.6251
     1.6980   1.7269   1.8066   1.8160   1.8523   1.9189   2.1265   2.1329
     2.1846   2.2355   2.2843   2.4246   2.4900   2.6329   2.7107   2.7234
     2.8161   2.8209   2.8429   2.8598   2.9249   2.9332   3.0250   3.0759
     3.1977   3.2092   3.3096   3.3302   3.4700   3.5169   3.6059   3.7160
     7.0582   7.0786   8.1273   8.1483   8.1530   8.1898   9.3287   9.3359
    10.6636  10.6902  10.7290  10.7486  11.0801  11.1046  11.3111  11.3246
    11.4747  11.5592  11.8124  11.8458  11.9242  11.9301  12.4533  12.5016
    12.5835  12.6567

     occupation numbers 
     1.0000   1.0000   1.0000   1.0000   1.0000   1.0000   1.0000   1.0000
     1.0000   1.0000   1.0000   1.0000   1.0000   1.0000   1.0000   1.0000
     1.0000   1.0000   1.0000   1.0000   1.0000   1.0000   1.0000   1.0000
     1.0000   1.0000   1.0000   1.0000   1.0000   1.0000   1.0000   1.0000
     1.0000   1.0000   1.0000   1.0000   1.0000   1.0000   1.0000   1.0000
     1.0000   1.0000   1.0000   1.0000   1.0000   1.0000   1.0000   1.0000
     1.0000   1.0000   1.0000   1.0000   1.0000   1.0000   1.0000   1.0000
     1.0000   1.0000   1.0000   1.0000   1.0000   1.0000   1.0000   1.0000
     1.0000   1.0000   1.0000   1.0000   1.0000   1.0000   1.0000   1.0000
     1.0000   1.0000   1.0000   1.0000   1.0000   1.0000   1.0000   1.0000
     1.0000   1.0000   1.0000   1.0000   1.0000   1.0000   1.0000   1.0000
     1.0000   1.0000   1.0000   1.0000   1.0000   1.0000   1.0336   0.9837
     0.0000   0.0000   0.0000   0.0000   0.0000   0.0000   0.0000   0.0000
     0.0000   0.0000   0.0000   0.0000   0.0000   0.0000   0.0000   0.0000
     0.0000   0.0000

          k = 0.2887-0.5000-0.2024 ( 33460 PWs)   bands (ev):

   -47.1344 -47.1344 -46.8975 -46.8975 -46.8827 -46.8827 -24.1177 -24.1159
   -23.6919 -23.6902 -23.5783 -23.5767 -23.5633 -23.5596 -23.2214 -23.2213
   -23.1446 -23.1423 -22.8479 -22.8477 -22.7810 -22.7799 -22.4968 -22.4967
   -16.6153 -16.6083 -16.2901 -16.2839 -16.0217 -16.0073 -15.7639 -15.7005
   -15.6869 -15.6417 -15.6130 -15.6121 -15.5679 -15.5443 -15.3203 -15.3160
     0.4828   0.4888   0.7065   0.9115   1.0559   1.1329   1.2068   1.2683
     1.3593   1.4059   1.4929   1.5013   1.5033   1.5142   1.5816   1.6561
     1.6736   1.7299   1.7929   1.8153   1.8476   1.9597   2.0435   2.1261
     2.1787   2.2451   2.3105   2.4108   2.5027   2.6266   2.7083   2.7249
     2.8214   2.8369   2.8588   2.8735   2.8940   2.8978   3.0214   3.0779
     3.2076   3.2212   3.3152   3.3237   3.4742   3.5152   3.6045   3.7194
     7.0575   7.0790   8.1258   8.1500   8.1641   8.1787   9.3294   9.3356
    10.6700  10.6834  10.7298  10.7480  11.0824  11.1041  11.3133  11.3223
    11.5034  11.5211  11.8131  11.8550  11.9246  11.9297  12.4530  12.4782
    12.5842  12.6569

     occupation numbers 
     1.0000   1.0000   1.0000   1.0000   1.0000   1.0000   1.0000   1.0000
     1.0000   1.0000   1.0000   1.0000   1.0000   1.0000   1.0000   1.0000
     1.0000   1.0000   1.0000   1.0000   1.0000   1.0000   1.0000   1.0000
     1.0000   1.0000   1.0000   1.0000   1.0000   1.0000   1.0000   1.0000
     1.0000   1.0000   1.0000   1.0000   1.0000   1.0000   1.0000   1.0000
     1.0000   1.0000   1.0000   1.0000   1.0000   1.0000   1.0000   1.0000
     1.0000   1.0000   1.0000   1.0000   1.0000   1.0000   1.0000   1.0000
     1.0000   1.0000   1.0000   1.0000   1.0000   1.0000   1.0000   1.0000
     1.0000   1.0000   1.0000   1.0000   1.0000   1.0000   1.0000   1.0000
     1.0000   1.0000   1.0000   1.0000   1.0000   1.0000   1.0000   1.0000
     1.0000   1.0000   1.0000   1.0000   1.0000   1.0000   1.0000   1.0000
     1.0000   1.0000   1.0000   1.0000   1.0000   1.0000   1.0294   0.9858
     0.0000   0.0000   0.0000   0.0000   0.0000   0.0000   0.0000   0.0000
     0.0000   0.0000   0.0000   0.0000   0.0000   0.0000   0.0000   0.0000
     0.0000   0.0000

          k = 0.0000 0.3333 0.0000 ( 33414 PWs)   bands (ev):

   -47.1398 -47.1398 -46.8917 -46.8917 -46.8827 -46.8827 -24.1882 -24.1876
   -23.7283 -23.7268 -23.6578 -23.6564 -23.5959 -23.5868 -23.1729 -23.1728
   -23.1269 -23.1268 -22.7843 -22.7841 -22.6297 -22.6289 -22.5040 -22.5037
   -16.7091 -16.6813 -16.2273 -16.2243 -16.0370 -15.9631 -15.9615 -15.9069
   -15.8238 -15.7874 -15.5112 -15.4688 -15.3829 -15.3566 -15.3352 -15.3309
     0.5535   0.5884   0.7968   0.8242   0.8603   0.8940   1.0570   1.1059
     1.1786   1.1951   1.3169   1.4040   1.4066   1.6603   1.6654   1.7482
     1.7789   1.8008   1.8344   1.8930   1.9143   1.9402   2.0065   2.0981
     2.1594   2.2697   2.4404   2.4932   2.5976   2.6126   2.7069   2.7714
     2.8047   2.8322   2.8923   2.9395   2.9514   2.9918   3.0265   3.1057
     3.1204   3.2636   3.2897   3.4449   3.5451   3.5656   3.6098   3.6325
     7.1327   7.1535   8.0601   8.0618   8.1060   8.1486   9.4211   9.4561
    10.6809  10.6941  10.7360  10.7484  11.2458  11.3035  11.3365  11.4303
    11.4951  11.5014  11.9810  11.9963  12.0400  12.2803  12.3837  12.4055
    12.5429  12.8665

     occupation numbers 
     1.0000   1.0000   1.0000   1.0000   1.0000   1.0000   1.0000   1.0000
     1.0000   1.0000   1.0000   1.0000   1.0000   1.0000   1.0000   1.0000
     1.0000   1.0000   1.0000   1.0000   1.0000   1.0000   1.0000   1.0000
     1.0000   1.0000   1.0000   1.0000   1.0000   1.0000   1.0000   1.0000
     1.0000   1.0000   1.0000   1.0000   1.0000   1.0000   1.0000   1.0000
     1.0000   1.0000   1.0000   1.0000   1.0000   1.0000   1.0000   1.0000
     1.0000   1.0000   1.0000   1.0000   1.0000   1.0000   1.0000   1.0000
     1.0000   1.0000   1.0000   1.0000   1.0000   1.0000   1.0000   1.0000
     1.0000   1.0000   1.0000   1.0000   1.0000   1.0000   1.0000   1.0000
     1.0000   1.0000   1.0000   1.0000   1.0000   1.0000   1.0000   1.0000
     1.0000   1.0000   1.0000   1.0000   1.0000   1.0000   1.0000   1.0000
     1.0000   1.0000   1.0000   1.0000   1.0000   1.0000   0.0533   0.0035
     0.0000   0.0000   0.0000   0.0000   0.0000   0.0000   0.0000   0.0000
     0.0000   0.0000   0.0000   0.0000   0.0000   0.0000   0.0000   0.0000
     0.0000   0.0000

          k = 0.0000 0.3333 0.1012 ( 33425 PWs)   bands (ev):

   -47.1398 -47.1398 -46.8917 -46.8917 -46.8827 -46.8827 -24.1885 -24.1874
   -23.7282 -23.7268 -23.6578 -23.6564 -23.5953 -23.5874 -23.1733 -23.1724
   -23.1273 -23.1263 -22.7843 -22.7841 -22.6296 -22.6290 -22.5040 -22.5037
   -16.7070 -16.6824 -16.2284 -16.2258 -16.0379 -15.9619 -15.9590 -15.9087
   -15.8237 -15.7888 -15.5064 -15.4686 -15.3803 -15.3572 -15.3379 -15.3332
     0.5456   0.5944   0.7827   0.8134   0.8511   0.9182   1.0604   1.1083
     1.1746   1.2178   1.3111   1.4009   1.4266   1.6412   1.6778   1.7349
     1.7532   1.7934   1.8521   1.9090   1.9097   1.9552   2.0283   2.0820
     2.1503   2.2759   2.4373   2.4801   2.5766   2.6189   2.6897   2.7598
     2.8086   2.8307   2.8979   2.9475   2.9661   2.9968   3.0348   3.0943
     3.1372   3.2482   3.3027   3.4418   3.5405   3.5685   3.6093   3.6331
     7.1307   7.1546   8.0550   8.0695   8.1064   8.1456   9.4237   9.4546
    10.6822  10.6941  10.7357  10.7464  11.2516  11.3016  11.3414  11.4318
    11.4924  11.4993  11.9820  11.9951  12.0465  12.2377  12.3926  12.4075
    12.6036  12.8585

     occupation numbers 
     1.0000   1.0000   1.0000   1.0000   1.0000   1.0000   1.0000   1.0000
     1.0000   1.0000   1.0000   1.0000   1.0000   1.0000   1.0000   1.0000
     1.0000   1.0000   1.0000   1.0000   1.0000   1.0000   1.0000   1.0000
     1.0000   1.0000   1.0000   1.0000   1.0000   1.0000   1.0000   1.0000
     1.0000   1.0000   1.0000   1.0000   1.0000   1.0000   1.0000   1.0000
     1.0000   1.0000   1.0000   1.0000   1.0000   1.0000   1.0000   1.0000
     1.0000   1.0000   1.0000   1.0000   1.0000   1.0000   1.0000   1.0000
[...]
     atom    4 type  1   force =     0.37475299    0.00000000    0.05479750
     atom    5 type  1   force =    -0.18737649    0.32454561    0.05479750
     atom    6 type  1   force =    -0.18737649   -0.32454561    0.05479750
     atom    7 type  2   force =     0.00000000    0.00000000    1.52038790
     atom    8 type  2   force =    -0.61823758    0.00000000    0.94815252
     atom    9 type  2   force =     0.30911879   -0.53540945    0.94815252
     atom   10 type  2   force =     0.30911879    0.53540945    0.94815252
     atom   11 type  2   force =     0.00000000    0.00000000   -1.09255147
     atom   12 type  2   force =     0.79646387    0.00000000   -1.16363792
     atom   13 type  2   force =    -0.39823194    0.68975795   -1.16363792
     atom   14 type  2   force =    -0.39823194   -0.68975795   -1.16363792
     atom   15 type  2   force =    -0.79646387    0.00000000    1.16363792
     atom   16 type  2   force =     0.39823194   -0.68975795    1.16363792
     atom   17 type  2   force =     0.39823194    0.68975795    1.16363792
     atom   18 type  2   force =     0.00000000    0.00000000    1.09255147
     atom   19 type  2   force =     0.61823758   -0.00000000   -0.94815252
     atom   20 type  2   force =    -0.30911879    0.53540945   -0.94815252
     atom   21 type  2   force =    -0.30911879   -0.53540945   -0.94815252
     atom   22 type  2   force =    -0.00000000   -0.00000000   -1.52038790
     The ionic contribution  to forces
     atom    1 type  1   force =     7.09145472   -0.00000054   -1.79005619
     atom    2 type  1   force =    -3.54572688    6.14138020   -1.79005618
     atom    3 type  1   force =    -3.54572782   -6.14137966   -1.79005618
     atom    4 type  1   force =    -7.09145472    0.00000054    1.79005619
     atom    5 type  1   force =     3.54572688   -6.14138020    1.79005618
     atom    6 type  1   force =     3.54572782    6.14137966    1.79005618
     atom    7 type  2   force =     0.00000000    0.00000000  -15.11729605
     atom    8 type  2   force =     7.65539339   -0.00000079  -10.50634835
     atom    9 type  2   force =    -3.82769602    6.62976554  -10.50634835
     atom   10 type  2   force =    -3.82769738   -6.62976475  -10.50634835
     atom   11 type  2   force =    -0.00000000   -0.00000000   11.99651629
     atom   12 type  2   force =    -9.53100865   -0.00000048   10.23942550
     atom   13 type  2   force =     4.76550474   -8.25409537   10.23942550
     atom   14 type  2   force =     4.76550391    8.25409585   10.23942550
     atom   15 type  2   force =     9.53100865    0.00000048  -10.23942550
     atom   16 type  2   force =    -4.76550474    8.25409537  -10.23942550
     atom   17 type  2   force =    -4.76550391   -8.25409585  -10.23942550
     atom   18 type  2   force =     0.00000000    0.00000000  -11.99651629
     atom   19 type  2   force =    -7.65539339    0.00000079   10.50634835
     atom   20 type  2   force =     3.82769602   -6.62976554   10.50634835
     atom   21 type  2   force =     3.82769738    6.62976475   10.50634835
     atom   22 type  2   force =    -0.00000000   -0.00000000   15.11729605
     The local contribution  to forces
     atom    1 type  1   force =    -6.71570713   -0.00000302    1.84471518
     atom    2 type  1   force =     3.35785618   -5.81597146    1.84471518
     atom    3 type  1   force =     3.35785094    5.81597449    1.84471518
     atom    4 type  1   force =     6.71570713    0.00000302   -1.84471518
     atom    5 type  1   force =    -3.35785618    5.81597146   -1.84471518
     atom    6 type  1   force =    -3.35785094   -5.81597449   -1.84471518
     atom    7 type  2   force =    -0.00000000   -0.00000000   13.59765647
     atom    8 type  2   force =    -7.03725890   -0.00000324    9.55851219
     atom    9 type  2   force =     3.51863220   -6.09444332    9.55851219
     atom   10 type  2   force =     3.51862658    6.09444656    9.55851219
     atom   11 type  2   force =    -0.00000004    0.00000000  -10.90458132
     atom   12 type  2   force =     8.73490758   -0.00000346   -9.07623742
     atom   13 type  2   force =    -4.36745080    7.56465359   -9.07623742
     atom   14 type  2   force =    -4.36745678   -7.56465014   -9.07623742
     atom   15 type  2   force =    -8.73490758    0.00000346    9.07623742
     atom   16 type  2   force =     4.36745080   -7.56465359    9.07623742
     atom   17 type  2   force =     4.36745678    7.56465014    9.07623742
     atom   18 type  2   force =     0.00000004   -0.00000000   10.90458132
     atom   19 type  2   force =     7.03725890    0.00000324   -9.55851219
     atom   20 type  2   force =    -3.51863220    6.09444332   -9.55851219
     atom   21 type  2   force =    -3.51862658   -6.09444656   -9.55851219
     atom   22 type  2   force =     0.00000000    0.00000000  -13.59765647
     The core correction contribution to forces
     atom    1 type  1   force =     0.00000000    0.00000000    0.00000000
     atom    2 type  1   force =     0.00000000    0.00000000    0.00000000
     atom    3 type  1   force =     0.00000000    0.00000000    0.00000000
     atom    4 type  1   force =     0.00000000    0.00000000    0.00000000
     atom    5 type  1   force =     0.00000000    0.00000000    0.00000000
     atom    6 type  1   force =     0.00000000    0.00000000    0.00000000
     atom    7 type  2   force =     0.00000000    0.00000000    0.00000000
     atom    8 type  2   force =     0.00000000    0.00000000    0.00000000
     atom    9 type  2   force =     0.00000000    0.00000000    0.00000000
     atom   10 type  2   force =     0.00000000    0.00000000    0.00000000
     atom   11 type  2   force =     0.00000000    0.00000000    0.00000000
     atom   12 type  2   force =     0.00000000    0.00000000    0.00000000
     atom   13 type  2   force =     0.00000000    0.00000000    0.00000000
     atom   14 type  2   force =     0.00000000    0.00000000    0.00000000
     atom   15 type  2   force =     0.00000000    0.00000000    0.00000000
     atom   16 type  2   force =     0.00000000    0.00000000    0.00000000
     atom   17 type  2   force =     0.00000000    0.00000000    0.00000000
     atom   18 type  2   force =     0.00000000    0.00000000    0.00000000
     atom   19 type  2   force =     0.00000000    0.00000000    0.00000000
     atom   20 type  2   force =     0.00000000    0.00000000    0.00000000
     atom   21 type  2   force =     0.00000000    0.00000000    0.00000000
     atom   22 type  2   force =     0.00000000    0.00000000    0.00000000
     The Hubbard contrib.    to forces
     atom    1 type  1   force =     0.00000000    0.00000000    0.00000000
     atom    2 type  1   force =     0.00000000    0.00000000    0.00000000
     atom    3 type  1   force =     0.00000000    0.00000000    0.00000000
     atom    4 type  1   force =     0.00000000    0.00000000    0.00000000
     atom    5 type  1   force =     0.00000000    0.00000000    0.00000000
     atom    6 type  1   force =     0.00000000    0.00000000    0.00000000
     atom    7 type  2   force =     0.00000000    0.00000000    0.00000000
     atom    8 type  2   force =     0.00000000    0.00000000    0.00000000
     atom    9 type  2   force =     0.00000000    0.00000000    0.00000000
     atom   10 type  2   force =     0.00000000    0.00000000    0.00000000
     atom   11 type  2   force =     0.00000000    0.00000000    0.00000000
     atom   12 type  2   force =     0.00000000    0.00000000    0.00000000
     atom   13 type  2   force =     0.00000000    0.00000000    0.00000000
     atom   14 type  2   force =     0.00000000    0.00000000    0.00000000
     atom   15 type  2   force =     0.00000000    0.00000000    0.00000000
     atom   16 type  2   force =     0.00000000    0.00000000    0.00000000
     atom   17 type  2   force =     0.00000000    0.00000000    0.00000000
     atom   18 type  2   force =     0.00000000    0.00000000    0.00000000
     atom   19 type  2   force =     0.00000000    0.00000000    0.00000000
     atom   20 type  2   force =     0.00000000    0.00000000    0.00000000
     atom   21 type  2   force =     0.00000000    0.00000000    0.00000000
     atom   22 type  2   force =     0.00000000    0.00000000    0.00000000
     The SCF correction term to forces
     atom    1 type  1   force =     0.00000013    0.00000000    0.00000020
     atom    2 type  1   force =    -0.00000006    0.00000011    0.00000020
     atom    3 type  1   force =    -0.00000006   -0.00000011    0.00000020
     atom    4 type  1   force =    -0.00000013   -0.00000000   -0.00000020
     atom    5 type  1   force =     0.00000006   -0.00000011   -0.00000020
     atom    6 type  1   force =     0.00000006    0.00000011   -0.00000020
     atom    7 type  2   force =    -0.00000000    0.00000000    0.00000013
     atom    8 type  2   force =     0.00000007    0.00000000    0.00000022
     atom    9 type  2   force =    -0.00000004    0.00000006    0.00000022
     atom   10 type  2   force =    -0.00000004   -0.00000006    0.00000022
     atom   11 type  2   force =    -0.00000000   -0.00000000    0.00000007
     atom   12 type  2   force =    -0.00000015   -0.00000000   -0.00000000
     atom   13 type  2   force =     0.00000008   -0.00000013   -0.00000000
     atom   14 type  2   force =     0.00000008    0.00000013   -0.00000000
     atom   15 type  2   force =     0.00000015    0.00000000    0.00000000
     atom   16 type  2   force =    -0.00000008    0.00000013    0.00000000
     atom   17 type  2   force =    -0.00000008   -0.00000013    0.00000000
     atom   18 type  2   force =     0.00000000    0.00000000   -0.00000007
     atom   19 type  2   force =    -0.00000007   -0.00000000   -0.00000022
     atom   20 type  2   force =     0.00000004   -0.00000006   -0.00000022
     atom   21 type  2   force =     0.00000004    0.00000006   -0.00000022
     atom   22 type  2   force =     0.00000000   -0.00000000   -0.00000013

     DFT-D3 dispersion contribution to forces:
     atom    1 type  1   force =    -0.00099469    0.00000000    0.00013876
     atom    2 type  1   force =     0.00049734   -0.00086143    0.00013876
     atom    3 type  1   force =     0.00049734    0.00086143    0.00013876
     atom    4 type  1   force =     0.00099469   -0.00000000   -0.00013876
     atom    5 type  1   force =    -0.00049734    0.00086143   -0.00013876
     atom    6 type  1   force =    -0.00049734   -0.00086143   -0.00013876
     atom    7 type  2   force =    -0.00000000    0.00000000   -0.00074815
     atom    8 type  2   force =     0.00010316    0.00000000   -0.00031620
     atom    9 type  2   force =    -0.00005158    0.00008934   -0.00031620
     atom   10 type  2   force =    -0.00005158   -0.00008934   -0.00031620
     atom   11 type  2   force =     0.00000000   -0.00000000    0.00061666
     atom   12 type  2   force =    -0.00036349    0.00000000    0.00044959
     atom   13 type  2   force =     0.00018174   -0.00031479    0.00044959
     atom   14 type  2   force =     0.00018174    0.00031479    0.00044959
     atom   15 type  2   force =     0.00036349   -0.00000000   -0.00044959
     atom   16 type  2   force =    -0.00018174    0.00031479   -0.00044959
     atom   17 type  2   force =    -0.00018174   -0.00031479   -0.00044959
     atom   18 type  2   force =    -0.00000000    0.00000000   -0.00061666
     atom   19 type  2   force =    -0.00010316   -0.00000000    0.00031620
     atom   20 type  2   force =     0.00005158   -0.00008934    0.00031620
     atom   21 type  2   force =     0.00005158    0.00008934    0.00031620
     atom   22 type  2   force =     0.00000000   -0.00000000    0.00074815

     Total force =     0.000003     Total SCF correction =     0.000001

     DFT-D3 dispersion Force =     0.003256
     SCF correction compared to forces is large: reduce conv_thr to get better values


     Computing stress (Cartesian axis) and pressure

          total   stress  (Ry/bohr**3)                   (kbar)     P=       16.33
   0.00012070  -0.00000000   0.00000000           17.76       -0.00        0.00
   0.00000000   0.00012070   0.00000000            0.00       17.76        0.00
   0.00000000  -0.00000000   0.00009172            0.00       -0.00       13.49

     kinetic stress (kbar)  35986.26     -0.00      0.00
                               -0.00  35986.26     -0.00
                                0.00      0.00  35970.48

     local   stress (kbar) -25997.92     -0.00     -0.00
                               -0.00 -25997.92      0.00
                               -0.00      0.00  -5342.04

     nonloc. stress (kbar)   1771.34      0.00      0.00
                                0.00   1771.34      0.00
                                0.00      0.00   1801.79

     hartree stress (kbar)  13405.09      0.00      0.00
                                0.00  13405.09     -0.00
                                0.00     -0.00   5529.83

     exc-cor stress (kbar)  -5416.07      0.00     -0.00
                                0.00  -5416.07      0.00
                               -0.00      0.00  -5428.08

     corecor stress (kbar)      0.00      0.00      0.00
                                0.00      0.00      0.00
                                0.00      0.00      0.00

     ewald   stress (kbar) -19709.86      0.00      0.00
                                0.00 -19709.86      0.00
                                0.00      0.00 -32493.98

     hubbard stress (kbar)      0.00      0.00      0.00
                                0.00      0.00      0.00
                                0.00      0.00      0.00

     DFT-D   stress (kbar)    -21.09      0.00      0.00
                                0.00    -21.09     -0.00
                                0.00     -0.00    -24.50

     XDM     stress (kbar)      0.00      0.00      0.00
                                0.00      0.00      0.00
                                0.00      0.00      0.00

     dft-nl  stress (kbar)      0.00      0.00      0.00
                                0.00      0.00      0.00
                                0.00      0.00      0.00

     TS-vdW  stress (kbar)      0.00      0.00      0.00
                                0.00      0.00      0.00
                                0.00      0.00      0.00

     MDB     stress (kbar)      0.00      0.00      0.00
                                0.00      0.00      0.00
                                0.00      0.00      0.00

     3D-RISM stress (kbar)      0.00      0.00      0.00
                                0.00      0.00      0.00
                                0.00      0.00      0.00


     Damped Dynamics: convergence achieved in   8 steps

     End of damped dynamics calculation

     Final energy =   -1450.9353140913 Ry

Begin final coordinates
     new unit-cell volume =   1979.83334 a.u.^3 (   293.38103 Ang^3 )
     density =      4.87560 g/cm^3

CELL_PARAMETERS (angstrom)
   5.112458790   2.951679459   0.000000000
  -5.112458790   2.951679459   0.000000000
  -3.408305860   0.000000000   9.720822747

ATOMIC_POSITIONS (crystal)
Nb               0.0622774593       -0.0622774494       -0.2499962536
Nb               0.0622774494        0.3745511624       -0.2499962536
Nb              -0.3745511624       -0.0622774593       -0.2499962536
Nb              -0.0622774593        0.0622774494        0.2499962536
Nb              -0.0622774494       -0.3745511624        0.2499962536
Nb               0.3745511624        0.0622774593        0.2499962536
F               -0.1367608821        0.1367608821       -0.4102826463
F                0.3741643948       -0.3741643850       -0.3618269909
F                0.3741643850        0.1101557706       -0.3618269909
F               -0.1101557706       -0.3741643948       -0.3618269909
F                0.2885344523       -0.2885344523       -0.1343966431
F               -0.2015780362        0.2015780460       -0.1135427094
F               -0.2015780460       -0.2896133728       -0.1135427094
F                0.2896133728        0.2015780362       -0.1135427094
F                0.2015780362       -0.2015780460        0.1135427094
F                0.2015780460        0.2896133728        0.1135427094
F               -0.2896133728       -0.2015780362        0.1135427094
F               -0.2885344523        0.2885344523        0.1343966431
F               -0.3741643948        0.3741643850        0.3618269909
F               -0.3741643850       -0.1101557706        0.3618269909
F                0.1101557706        0.3741643948        0.3618269909
F                0.1367608821       -0.1367608821        0.4102826463
End final coordinates



     Writing all to output data dir ./out/Nb3F8.save/ :
     XML data file, charge density, pseudopotentials, collected wavefunctions

     init_run     :      0.89s CPU      1.02s WALL (       1 calls)
     electrons    :     65.46s CPU     69.37s WALL (       9 calls)
     update_pot   :      4.61s CPU      5.31s WALL (       8 calls)
     forces       :      1.95s CPU      2.27s WALL (       9 calls)
     force_dftd3  :      0.36s CPU      0.39s WALL (       9 calls)
     stress       :     15.99s CPU     16.31s WALL (       9 calls)
     stres_dftd3  :      0.36s CPU      0.39s WALL (       9 calls)

     Called by init_run:
     wfcinit      :      0.22s CPU      0.25s WALL (       1 calls)
     wfcinit:wfcr :      0.19s CPU      0.21s WALL (       2 calls)
     potinit      :      0.13s CPU      0.13s WALL (       1 calls)
     hinit0       :      0.40s CPU      0.43s WALL (       1 calls)

     Called by electrons:
     c_bands      :     58.99s CPU     59.93s WALL (      52 calls)
     sum_band     :      4.21s CPU      4.32s WALL (      52 calls)
     v_of_rho     :      0.72s CPU      0.78s WALL (      52 calls)
     v_h          :      0.05s CPU      0.06s WALL (      52 calls)
     v_xc         :      0.67s CPU      0.73s WALL (      52 calls)
     mix_rho      :      0.12s CPU      0.12s WALL (      52 calls)
     energy_dftd3 :      0.17s CPU      0.17s WALL (       9 calls)

     Called by c_bands:
     init_us_2    :      1.21s CPU      1.25s WALL (     246 calls)
     cegterg      :     45.16s CPU     45.87s WALL (     105 calls)

     Called by sum_band:
     sum_band:wei :      0.11s CPU      0.12s WALL (      52 calls)
     sum_band:loo :      3.64s CPU      3.71s WALL (      52 calls)
     sum_band:buf :      0.19s CPU      0.20s WALL (     104 calls)
     sum_band:ini :      0.52s CPU      0.53s WALL (     104 calls)

     Called by *egterg:
     cdiaghg      :      9.63s CPU      9.74s WALL (     564 calls)
     cegterg:over :      3.80s CPU      3.84s WALL (     494 calls)
     cegterg:upda :      2.11s CPU      2.15s WALL (     494 calls)
     cegterg:last :      3.04s CPU      3.08s WALL (     231 calls)
     h_psi        :     24.58s CPU     25.04s WALL (     601 calls)
     g_psi        :      0.08s CPU      0.08s WALL (     494 calls)

     Called by h_psi:
     h_psi:calbec :      4.33s CPU      4.39s WALL (     601 calls)
     vloc_psi     :     16.85s CPU     17.19s WALL (     601 calls)
     add_vuspsi   :      3.09s CPU      3.13s WALL (     601 calls)

     General routines
     calbec       :      7.54s CPU      7.64s WALL (     705 calls)
     fft          :      0.67s CPU      0.76s WALL (     600 calls)
     ffts         :      0.08s CPU      0.08s WALL (      52 calls)
     fftw         :     17.86s CPU     18.20s WALL (   78144 calls)
     davcio       :      0.01s CPU      0.51s WALL (      56 calls)

     Parallel routines

     PWSCF        :     89.79s CPU     96.37s WALL


   This run was terminated on:   9:56:57   2May2025            

=------------------------------------------------------------------------------=
   JOB DONE.
=------------------------------------------------------------------------------=
