
     Program PWSCF v.7.3.1 starts on  7May2025 at 12:23:18 

     This program is part of the open-source Quantum ESPRESSO suite
     for quantum simulation of materials; please cite
         "P. Giannozzi et al., J. Phys.:Condens. Matter 21 395502 (2009);
         "P. Giannozzi et al., J. Phys.:Condens. Matter 29 465901 (2017);
         "P. Giannozzi et al., J. Chem. Phys. 152 154105 (2020);
          URL http://www.quantum-espresso.org", 
     in publications or presentations arising from this work. More details at
     http://www.quantum-espresso.org/quote

     Parallel version (MPI & OpenMP), running on     384 processor cores
     Number of MPI processes:               384
     Threads/MPI process:                     1

     MPI processes distributed on     2 nodes
     338212 MiB available memory on the printing compute node when the environment starts

     Waiting for input...
     Reading input from standard input
Warning: card &CELL ignored
Warning: card / ignored
Warning: card &FCP ignored
Warning: card / ignored
Warning: card &RISM ignored
Warning: card / ignored

     Current dimensions of program PWSCF are:
     Max number of different atomic species (ntypx) = 10
     Max number of k-points (npk) =  40000
     Max angular momentum in pseudopotentials (lmaxx) =  4

     IMPORTANT: XC functional enforced from input :
     Exchange-correlation= PBE
                           (   1   4   3   4   0   0   0)
     Any further DFT definition will be discarded
     Please, verify this is what you really want

     Message from routine setup:
     using ibrav=0 with symmetry is DISCOURAGED, use correct ibrav instead
     Message from routine setup:
     Dynamics, you should have no symmetries

     K-points division:     npool     =      16
     R & G space division:  proc/nbgrp/npool/nimage =      24
     Subspace diagonalization in iterative solution of the eigenvalue problem:
     a serial algorithm will be used

     Message from routine divide_et_impera:
     suboptimal parallelization: some nodes have no k-points

     Parallelization info
     --------------------
     sticks:   dense  smooth     PW     G-vecs:    dense   smooth      PW
     Min         186     186     49                45833    45833    6301
     Max         188     188     50                45845    45845    6314
     Sum        4483    4483   1189              1100103  1100103  151427

     Using Slab Decomposition



     bravais-lattice index     =            0
     lattice parameter (alat)  =      12.7288  a.u.
     unit-cell volume          =    8140.0419 (a.u.)^3
     number of atoms/cell      =           22
     number of atomic types    =            2
     number of electrons       =       190.00
     number of Kohn-Sham states=          114
     kinetic-energy cutoff     =     100.0000  Ry
     charge density cutoff     =     400.0000  Ry
     scf convergence threshold =      1.0E-12
     mixing beta               =       0.7000
     number of iterations used =            8  plain     mixing
     energy convergence thresh.=      1.0E-04
     force convergence thresh. =      1.0E-06
     Exchange-correlation= PBE
                           (   1   4   3   4   0   0   0)
     nstep                     =           50


     celldm(1)=  12.728776  celldm(2)=   0.000000  celldm(3)=   0.000000
     celldm(4)=   0.000000  celldm(5)=   0.000000  celldm(6)=   0.000000

     crystal axes: (cart. coord. in units of alat)
               a(1) = (   0.866025   0.500000   0.000000 )  
               a(2) = (  -0.866025   0.500000   0.000000 )  
               a(3) = (   0.000000   0.000000   4.557598 )  

     reciprocal axes: (cart. coord. in units 2 pi/alat)
               b(1) = (  0.577350  1.000000 -0.000000 )  
               b(2) = ( -0.577350  1.000000  0.000000 )  
               b(3) = (  0.000000 -0.000000  0.219414 )  


     PseudoPot. # 1 for Nb read from file:
     /scratch-shared/mroesner/Nb3X8_cDFPT/pp/Nb_ONCV_PBE-1.2.upf
     MD5 check sum: 2c750ac0b6910ff4cf0ab5f6c4124a64
     Pseudo is Norm-conserving, Zval = 13.0
     Generated using ONCVPSP code by D. R. Hamann
     Using radial grid of  602 points,  6 beta functions with: 
                l(1) =   0
                l(2) =   0
                l(3) =   1
                l(4) =   1
                l(5) =   2
                l(6) =   2

     PseudoPot. # 2 for Cl read from file:
     /scratch-shared/mroesner/Nb3X8_cDFPT/pp/Cl_ONCV_PBE-1.2.upf
     MD5 check sum: 0f993535b366f580ecbcdacce103c843
     Pseudo is Norm-conserving, Zval =  7.0
     Generated using ONCVPSP code by D. R. Hamann
     Using radial grid of  602 points,  4 beta functions with: 
                l(1) =   0
                l(2) =   0
                l(3) =   1
                l(4) =   1

     atomic species   valence    mass     pseudopotential
     Nb               13.00    92.90637     Nb( 1.00)
     Cl                7.00    35.45270     Cl( 1.00)

     12 Sym. Ops., with inversion, found


                                    s                        frac. trans.

      isym =  1     identity                                     

 cryst.   s( 1) = (     1          0          0      )
                  (     0          1          0      )
                  (     0          0          1      )

 cart.    s( 1) = (  1.0000000 -0.0000000  0.0000000 )
                  ( -0.0000000  1.0000000  0.0000000 )
                  (  0.0000000  0.0000000  1.0000000 )


      isym =  2     180 deg rotation - cart. axis [0,1,0]        

 cryst.   s( 2) = (     0          1          0      )
                  (     1          0          0      )
                  (     0          0         -1      )

 cart.    s( 2) = ( -1.0000000 -0.0000000  0.0000000 )
                  (  0.0000000  1.0000000  0.0000000 )
                  (  0.0000000  0.0000000 -1.0000000 )


      isym =  3     120 deg rotation - cryst. axis [0,0,1]       

 cryst.   s( 3) = (     0          1          0      )
                  (    -1         -1          0      )
                  (     0          0          1      )

 cart.    s( 3) = ( -0.5000000 -0.8660254  0.0000000 )
                  (  0.8660254 -0.5000000  0.0000000 )
                  (  0.0000000  0.0000000  1.0000000 )


      isym =  4     120 deg rotation - cryst. axis [0,0,-1]      

 cryst.   s( 4) = (    -1         -1          0      )
                  (     1          0          0      )
                  (     0          0          1      )

 cart.    s( 4) = ( -0.5000000  0.8660254  0.0000000 )
                  ( -0.8660254 -0.5000000  0.0000000 )
                  (  0.0000000  0.0000000  1.0000000 )


      isym =  5     180 deg rotation - cryst. axis [1,-1,0]      

 cryst.   s( 5) = (    -1         -1          0      )
                  (     0          1          0      )
                  (     0          0         -1      )

 cart.    s( 5) = (  0.5000000 -0.8660254  0.0000000 )
                  ( -0.8660254 -0.5000000  0.0000000 )
                  (  0.0000000  0.0000000 -1.0000000 )


      isym =  6     180 deg rotation - cryst. axis [2,1,0]       

 cryst.   s( 6) = (     1          0          0      )
                  (    -1         -1          0      )
                  (     0          0         -1      )

 cart.    s( 6) = (  0.5000000  0.8660254  0.0000000 )
                  (  0.8660254 -0.5000000  0.0000000 )
                  (  0.0000000  0.0000000 -1.0000000 )


      isym =  7     inversion                                    

 cryst.   s( 7) = (    -1          0          0      )
                  (     0         -1          0      )
                  (     0          0         -1      )

 cart.    s( 7) = ( -1.0000000  0.0000000  0.0000000 )
                  (  0.0000000 -1.0000000  0.0000000 )
                  (  0.0000000  0.0000000 -1.0000000 )


      isym =  8     inv. 180 deg rotation - cart. axis [0,1,0]   

 cryst.   s( 8) = (     0         -1          0      )
                  (    -1          0          0      )
                  (     0          0          1      )

 cart.    s( 8) = (  1.0000000  0.0000000  0.0000000 )
                  ( -0.0000000 -1.0000000  0.0000000 )
                  (  0.0000000  0.0000000  1.0000000 )


      isym =  9     inv. 120 deg rotation - cryst. axis [0,0,1]  

 cryst.   s( 9) = (     0         -1          0      )
                  (     1          1          0      )
                  (     0          0         -1      )

 cart.    s( 9) = (  0.5000000  0.8660254  0.0000000 )
                  ( -0.8660254  0.5000000  0.0000000 )
                  (  0.0000000  0.0000000 -1.0000000 )


      isym = 10     inv. 120 deg rotation - cryst. axis [0,0,-1] 

 cryst.   s(10) = (     1          1          0      )
                  (    -1          0          0      )
                  (     0          0         -1      )

 cart.    s(10) = (  0.5000000 -0.8660254  0.0000000 )
                  (  0.8660254  0.5000000  0.0000000 )
                  (  0.0000000  0.0000000 -1.0000000 )


      isym = 11     inv. 180 deg rotation - cryst. axis [1,-1,0] 

 cryst.   s(11) = (     1          1          0      )
                  (     0         -1          0      )
                  (     0          0          1      )

 cart.    s(11) = ( -0.5000000  0.8660254  0.0000000 )
                  (  0.8660254  0.5000000  0.0000000 )
                  (  0.0000000  0.0000000  1.0000000 )


      isym = 12     inv. 180 deg rotation - cryst. axis [2,1,0]  

 cryst.   s(12) = (    -1          0          0      )
                  (     1          1          0      )
                  (     0          0          1      )

 cart.    s(12) = ( -0.5000000 -0.8660254  0.0000000 )
                  ( -0.8660254  0.5000000  0.0000000 )
                  (  0.0000000  0.0000000  1.0000000 )


   Cartesian axes

     site n.     atom                  positions (alat units)
         1        Nb     tau(   1) = (   0.2400258  -0.0000000  -0.4602816  )
         2        Nb     tau(   2) = (  -0.1200129   0.2078684  -0.4602816  )
         3        Nb     tau(   3) = (  -0.1200129  -0.2078684  -0.4602816  )
         4        Nb     tau(   4) = (  -0.2400258   0.0000000   0.4602816  )
         5        Nb     tau(   5) = (   0.1200129  -0.2078684   0.4602816  )
         6        Nb     tau(   6) = (   0.1200129   0.2078684   0.4602816  )
         7        Cl     tau(   7) = (   0.0000000   0.0000000  -0.7311363  )
         8        Cl     tau(   8) = (  -0.8627085   0.0000000  -0.6621205  )
         9        Cl     tau(   9) = (  -0.4346711  -0.2471275  -0.6621205  )
        10        Cl     tau(  10) = (  -0.4346711   0.2471275  -0.6621205  )
        11        Cl     tau(  11) = (   0.5773503  -0.0000000  -0.2583659  )
        12        Cl     tau(  12) = (  -0.2861597   0.0000000  -0.2173901  )
        13        Cl     tau(  13) = (   0.1430798  -0.2478216  -0.2173901  )
        14        Cl     tau(  14) = (   0.1430798   0.2478216  -0.2173901  )
        15        Cl     tau(  15) = (   0.2861597  -0.0000000   0.2173901  )
        16        Cl     tau(  16) = (  -0.1430798   0.2478216   0.2173901  )
        17        Cl     tau(  17) = (  -0.1430798  -0.2478216   0.2173901  )
        18        Cl     tau(  18) = (  -0.5773503   0.0000000   0.2583659  )
        19        Cl     tau(  19) = (   0.8627085  -0.0000000   0.6621205  )
        20        Cl     tau(  20) = (   0.4346711   0.2471275   0.6621205  )
        21        Cl     tau(  21) = (   0.4346711  -0.2471275   0.6621205  )
        22        Cl     tau(  22) = (   0.0000000   0.0000000   0.7311363  )

     --------------------------------------------
     DFT-D3 Dispersion Correction (no 3-body):
     --------------------------------------------
       Reference C6 values for interpolation: 

         atom   Coordination number   C6
         Cl         0.000           184.69
         Cl         0.997           180.80
         Nb         0.000          2950.50
         Nb         1.954          1161.16
         Nb         2.922           857.79

       Values used:

         atom   Coordination number  R0_AB[au]  C6      C8
         Nb         8.263            3.647    857.79 111659.18
         Nb         8.263            3.647    857.79 111659.18
         Nb         8.263            3.647    857.79 111659.18
         Nb         8.263            3.647    857.79 111659.18
         Nb         8.263            3.647    857.79 111659.18
         Nb         8.263            3.647    857.79 111659.18
         Cl         3.145            2.933    180.80   7543.49
         Cl         2.255            2.933    180.80   7543.50
         Cl         2.255            2.933    180.80   7543.50
         Cl         2.255            2.933    180.80   7543.50
         Cl         3.115            2.933    180.80   7543.49
         Cl         2.309            2.933    180.80   7543.50
         Cl         2.309            2.933    180.80   7543.50
         Cl         2.309            2.933    180.80   7543.50
         Cl         2.309            2.933    180.80   7543.50
         Cl         2.309            2.933    180.80   7543.50
         Cl         2.309            2.933    180.80   7543.50
         Cl         3.115            2.933    180.80   7543.49
         Cl         2.255            2.933    180.80   7543.50
         Cl         2.255            2.933    180.80   7543.50
         Cl         2.255            2.933    180.80   7543.50
         Cl         3.145            2.933    180.80   7543.49

         Molecular C6 ( Ry / a.u.^6 ) =    150899.93


   Crystallographic axes

     site n.     atom                  positions (cryst. coord.)
         1        Nb     tau(   1) = (  0.1385790 -0.1385790 -0.1009921  )
         2        Nb     tau(   2) = (  0.1385790  0.2771579 -0.1009921  )
         3        Nb     tau(   3) = ( -0.2771579 -0.1385790 -0.1009921  )
         4        Nb     tau(   4) = ( -0.1385790  0.1385790  0.1009921  )
         5        Nb     tau(   5) = ( -0.1385790 -0.2771579  0.1009921  )
         6        Nb     tau(   6) = (  0.2771579  0.1385790  0.1009921  )
         7        Cl     tau(   7) = (  0.0000000  0.0000000 -0.1604214  )
         8        Cl     tau(   8) = ( -0.4980850  0.4980850 -0.1452784  )
         9        Cl     tau(   9) = ( -0.4980850  0.0038300 -0.1452784  )
        10        Cl     tau(  10) = ( -0.0038300  0.4980850 -0.1452784  )
        11        Cl     tau(  11) = (  0.3333333 -0.3333333 -0.0566890  )
        12        Cl     tau(  12) = ( -0.1652144  0.1652144 -0.0476984  )
        13        Cl     tau(  13) = ( -0.1652144 -0.3304287 -0.0476984  )
        14        Cl     tau(  14) = (  0.3304287  0.1652144 -0.0476984  )
        15        Cl     tau(  15) = (  0.1652144 -0.1652144  0.0476984  )
        16        Cl     tau(  16) = (  0.1652144  0.3304287  0.0476984  )
        17        Cl     tau(  17) = ( -0.3304287 -0.1652144  0.0476984  )
        18        Cl     tau(  18) = ( -0.3333333  0.3333333  0.0566890  )
        19        Cl     tau(  19) = (  0.4980850 -0.4980850  0.1452784  )
        20        Cl     tau(  20) = (  0.4980850 -0.0038300  0.1452784  )
        21        Cl     tau(  21) = (  0.0038300 -0.4980850  0.1452784  )
        22        Cl     tau(  22) = (  0.0000000  0.0000000  0.1604214  )

     number of k points=     7  Marzari-Vanderbilt smearing, width (Ry)=  0.0037
                       cart. coord. in units 2pi/alat
        k(    1) = (   0.0000000   0.0000000   0.0000000), wk =   0.0555556
        k(    2) = (  -0.0962250   0.1666667   0.0000000), wk =   0.3333333
        k(    3) = (  -0.1924501   0.3333333   0.0000000), wk =   0.3333333
        k(    4) = (   0.2886751  -0.5000000   0.0000000), wk =   0.1666667
        k(    5) = (  -0.0000000   0.3333333   0.0000000), wk =   0.3333333
        k(    6) = (  -0.0962250   0.5000000   0.0000000), wk =   0.6666667
        k(    7) = (  -0.0000000   0.6666667   0.0000000), wk =   0.1111111

                       cryst. coord.
        k(    1) = (   0.0000000   0.0000000   0.0000000), wk =   0.0555556
        k(    2) = (   0.0000000   0.1666667   0.0000000), wk =   0.3333333
        k(    3) = (   0.0000000   0.3333333   0.0000000), wk =   0.3333333
        k(    4) = (   0.0000000  -0.5000000   0.0000000), wk =   0.1666667
        k(    5) = (   0.1666667   0.1666667   0.0000000), wk =   0.3333333
        k(    6) = (   0.1666667   0.3333333   0.0000000), wk =   0.6666667
        k(    7) = (   0.3333333   0.3333333   0.0000000), wk =   0.1111111

     Dense  grid:  1100103 G-vectors     FFT dimensions: (  81,  81, 375)

     Dynamical RAM for                 wfc:       9.96 MB

     Dynamical RAM for     wfc (w. buffer):       9.96 MB

     Dynamical RAM for           str. fact:       1.40 MB

     Dynamical RAM for           local pot:       0.00 MB

     Dynamical RAM for          nlocal pot:      20.62 MB

     Dynamical RAM for                qrad:       3.21 MB

     Dynamical RAM for          rho,v,vnew:       4.50 MB

     Dynamical RAM for               rhoin:       1.50 MB

     Dynamical RAM for            rho*nmix:      11.19 MB

     Dynamical RAM for           G-vectors:       2.97 MB

     Dynamical RAM for          h,s,v(r/c):       2.38 MB

     Dynamical RAM for          <psi|beta>:       0.41 MB

     Dynamical RAM for                 psi:      19.92 MB

     Dynamical RAM for                hpsi:      19.92 MB

     Dynamical RAM for      wfcinit/wfcrot:      20.22 MB

     Estimated static dynamical RAM per process >      50.27 MB

     Estimated max dynamical RAM per process >     104.10 MB

     Estimated total dynamical RAM >      35.10 GB

     Initial potential from superposition of free atoms

     starting charge     189.2322, renormalised to     190.0000

     negative rho (up, down):  1.405E-03 0.000E+00
     Starting wfcs are random

     total cpu time spent up to now is        2.9 secs

     per-process dynamical memory:   200.6 Mb

     Self-consistent Calculation

     iteration #  1     ecut=   100.00 Ry     beta= 0.70
     Davidson diagonalization with overlap

---- Real-time Memory Report at c_bands before calling an iterative solver
           240 MiB given to the printing process from OS
           195 MiB allocation reported by mallinfo(arena+hblkhd)
        322442 MiB available memory on the node where the printing process lives
------------------
     ethr =  1.00E-02,  avg # of iterations = 15.6

     Threshold (ethr) on eigenvalues was too large:
     Diagonalizing with lowered threshold

     Davidson diagonalization with overlap

---- Real-time Memory Report at c_bands before calling an iterative solver
           275 MiB given to the printing process from OS
           195 MiB allocation reported by mallinfo(arena+hblkhd)
        323251 MiB available memory on the node where the printing process lives
------------------
     ethr =  3.34E-04,  avg # of iterations = 12.4

     negative rho (up, down):  2.219E-04 0.000E+00

     total cpu time spent up to now is       11.2 secs

     total energy              =   -1170.00869393 Ry
     estimated scf accuracy    <       0.63301854 Ry

     iteration #  2     ecut=   100.00 Ry     beta= 0.70
     Davidson diagonalization with overlap

---- Real-time Memory Report at c_bands before calling an iterative solver
           275 MiB given to the printing process from OS
           198 MiB allocation reported by mallinfo(arena+hblkhd)
        323402 MiB available memory on the node where the printing process lives
------------------
     ethr =  3.33E-04,  avg # of iterations =  3.0

     negative rho (up, down):  1.018E-04 0.000E+00

     total cpu time spent up to now is       13.1 secs

     total energy              =   -1170.13870115 Ry
     estimated scf accuracy    <       0.29223829 Ry

     iteration #  3     ecut=   100.00 Ry     beta= 0.70
     Davidson diagonalization with overlap

---- Real-time Memory Report at c_bands before calling an iterative solver
           277 MiB given to the printing process from OS
           199 MiB allocation reported by mallinfo(arena+hblkhd)
        323378 MiB available memory on the node where the printing process lives
------------------
     ethr =  1.54E-04,  avg # of iterations =  3.1

     negative rho (up, down):  5.768E-05 0.000E+00

     total cpu time spent up to now is       15.0 secs

     total energy              =   -1170.18800432 Ry
     estimated scf accuracy    <       0.12193961 Ry

     iteration #  4     ecut=   100.00 Ry     beta= 0.70
     Davidson diagonalization with overlap

---- Real-time Memory Report at c_bands before calling an iterative solver
           280 MiB given to the printing process from OS
           201 MiB allocation reported by mallinfo(arena+hblkhd)
        323341 MiB available memory on the node where the printing process lives
------------------
     ethr =  6.42E-05,  avg # of iterations =  5.7

     negative rho (up, down):  1.901E-05 0.000E+00

     total cpu time spent up to now is       17.5 secs

     total energy              =   -1170.21257080 Ry
     estimated scf accuracy    <       0.02468570 Ry

     iteration #  5     ecut=   100.00 Ry     beta= 0.70
     Davidson diagonalization with overlap

---- Real-time Memory Report at c_bands before calling an iterative solver
           282 MiB given to the printing process from OS
           202 MiB allocation reported by mallinfo(arena+hblkhd)
        323272 MiB available memory on the node where the printing process lives
------------------
     ethr =  1.30E-05,  avg # of iterations =  7.0

     negative rho (up, down):  3.124E-06 0.000E+00

     total cpu time spent up to now is       20.1 secs

     total energy              =   -1170.21659344 Ry
     estimated scf accuracy    <       0.00861404 Ry

     iteration #  6     ecut=   100.00 Ry     beta= 0.70
     Davidson diagonalization with overlap

---- Real-time Memory Report at c_bands before calling an iterative solver
           284 MiB given to the printing process from OS
           203 MiB allocation reported by mallinfo(arena+hblkhd)
        323214 MiB available memory on the node where the printing process lives
------------------
     ethr =  4.53E-06,  avg # of iterations =  4.6

     negative rho (up, down):  1.245E-07 0.000E+00

     total cpu time spent up to now is       22.0 secs

     total energy              =   -1170.21821480 Ry
     estimated scf accuracy    <       0.00064231 Ry

     iteration #  7     ecut=   100.00 Ry     beta= 0.70
     Davidson diagonalization with overlap

---- Real-time Memory Report at c_bands before calling an iterative solver
           286 MiB given to the printing process from OS
           205 MiB allocation reported by mallinfo(arena+hblkhd)
        323245 MiB available memory on the node where the printing process lives
------------------
     ethr =  3.38E-07,  avg # of iterations =  9.9

     total cpu time spent up to now is       24.7 secs

     total energy              =   -1170.21835967 Ry
     estimated scf accuracy    <       0.00003145 Ry

     iteration #  8     ecut=   100.00 Ry     beta= 0.70
     Davidson diagonalization with overlap

---- Real-time Memory Report at c_bands before calling an iterative solver
           287 MiB given to the printing process from OS
           206 MiB allocation reported by mallinfo(arena+hblkhd)
        323183 MiB available memory on the node where the printing process lives
------------------
     ethr =  1.66E-08,  avg # of iterations = 11.7

     total cpu time spent up to now is       27.5 secs

     total energy              =   -1170.21836924 Ry
     estimated scf accuracy    <       0.00000482 Ry

     iteration #  9     ecut=   100.00 Ry     beta= 0.70
     Davidson diagonalization with overlap

---- Real-time Memory Report at c_bands before calling an iterative solver
           288 MiB given to the printing process from OS
           208 MiB allocation reported by mallinfo(arena+hblkhd)
        323180 MiB available memory on the node where the printing process lives
------------------
     ethr =  2.53E-09,  avg # of iterations =  7.4

     total cpu time spent up to now is       30.4 secs

     total energy              =   -1170.21837034 Ry
     estimated scf accuracy    <       0.00000056 Ry

     iteration # 10     ecut=   100.00 Ry     beta= 0.70
     Davidson diagonalization with overlap

---- Real-time Memory Report at c_bands before calling an iterative solver
           291 MiB given to the printing process from OS
           209 MiB allocation reported by mallinfo(arena+hblkhd)
        323113 MiB available memory on the node where the printing process lives
------------------
     ethr =  2.95E-10,  avg # of iterations =  7.6

     total cpu time spent up to now is       33.0 secs

     total energy              =   -1170.21837044 Ry
     estimated scf accuracy    <       0.00000004 Ry

     iteration # 11     ecut=   100.00 Ry     beta= 0.70
     Davidson diagonalization with overlap

---- Real-time Memory Report at c_bands before calling an iterative solver
           293 MiB given to the printing process from OS
           209 MiB allocation reported by mallinfo(arena+hblkhd)
        323174 MiB available memory on the node where the printing process lives
------------------
     ethr =  1.91E-11,  avg # of iterations =  8.6

     total cpu time spent up to now is       35.6 secs

     total energy              =   -1170.21837045 Ry
     estimated scf accuracy    <          5.5E-09 Ry

     iteration # 12     ecut=   100.00 Ry     beta= 0.70
     Davidson diagonalization with overlap

---- Real-time Memory Report at c_bands before calling an iterative solver
           293 MiB given to the printing process from OS
           209 MiB allocation reported by mallinfo(arena+hblkhd)
        323112 MiB available memory on the node where the printing process lives
------------------
     ethr =  2.88E-12,  avg # of iterations =  6.3

     total cpu time spent up to now is       38.1 secs

     total energy              =   -1170.21837045 Ry
     estimated scf accuracy    <          8.9E-10 Ry

     iteration # 13     ecut=   100.00 Ry     beta= 0.70
     Davidson diagonalization with overlap

---- Real-time Memory Report at c_bands before calling an iterative solver
           293 MiB given to the printing process from OS
           209 MiB allocation reported by mallinfo(arena+hblkhd)
        323159 MiB available memory on the node where the printing process lives
------------------
     ethr =  4.68E-13,  avg # of iterations =  6.3

     total cpu time spent up to now is       40.5 secs

     total energy              =   -1170.21837045 Ry
     estimated scf accuracy    <          4.6E-11 Ry

     iteration # 14     ecut=   100.00 Ry     beta= 0.70
     Davidson diagonalization with overlap

---- Real-time Memory Report at c_bands before calling an iterative solver
           293 MiB given to the printing process from OS
           209 MiB allocation reported by mallinfo(arena+hblkhd)
        323113 MiB available memory on the node where the printing process lives
------------------
     ethr =  1.00E-13,  avg # of iterations =  8.7

     total cpu time spent up to now is       43.4 secs

     total energy              =   -1170.21837045 Ry
     estimated scf accuracy    <          1.6E-11 Ry

     iteration # 15     ecut=   100.00 Ry     beta= 0.70
     Davidson diagonalization with overlap

---- Real-time Memory Report at c_bands before calling an iterative solver
           293 MiB given to the printing process from OS
           209 MiB allocation reported by mallinfo(arena+hblkhd)
        323129 MiB available memory on the node where the printing process lives
------------------
     ethr =  1.00E-13,  avg # of iterations =  1.0

     total cpu time spent up to now is       44.7 secs

     total energy              =   -1170.21837045 Ry
     estimated scf accuracy    <          6.4E-12 Ry

     iteration # 16     ecut=   100.00 Ry     beta= 0.70
     Davidson diagonalization with overlap

---- Real-time Memory Report at c_bands before calling an iterative solver
           293 MiB given to the printing process from OS
           209 MiB allocation reported by mallinfo(arena+hblkhd)
        323091 MiB available memory on the node where the printing process lives
------------------
     ethr =  1.00E-13,  avg # of iterations =  1.0

     total cpu time spent up to now is       47.0 secs

     End of self-consistent calculation

          k = 0.0000 0.0000 0.0000 (137531 PWs)   bands (ev):

   -55.5719 -55.5719 -55.4685 -55.4685 -55.4685 -55.4685 -32.0571 -32.0570
   -31.8120 -31.8120 -31.8120 -31.8120 -31.7891 -31.7890 -31.6469 -31.6469
   -31.6469 -31.6469 -31.4042 -31.4042 -31.2512 -31.2512 -31.2512 -31.2512
   -17.2179 -17.1988 -16.7097 -16.5514 -16.1319 -16.1153 -16.0668 -16.0668
   -15.9822 -15.9822 -15.8006 -15.7663 -15.4354 -15.4354 -15.4312 -15.4312
    -6.7965  -6.7965  -6.7319  -6.7319  -6.5042  -6.3467  -6.2472  -6.1958
    -5.9159  -5.8176  -5.8176  -5.7719  -5.7719  -5.5366  -5.3539  -5.3493
    -5.3247  -5.3247  -5.0081  -5.0081  -4.7604  -4.6792  -4.5509  -4.5509
    -4.5389  -4.5389  -4.1354  -4.0709  -4.0412  -4.0412  -3.9729  -3.9729
    -3.8058  -3.8058  -3.7163  -3.7127  -3.6723  -3.6723  -3.6174  -3.2564
    -3.0439  -3.0439  -2.9866  -2.9866  -2.4237  -2.4237  -2.4137  -2.4137
    -1.4056  -1.3027  -0.8089  -0.8089  -0.7709  -0.7709   0.4748   0.6735
     1.3335   1.3335   1.3358   1.3358   2.2946   2.3388   2.3388   2.3803
     2.3803   2.5146   2.7135   2.7330   2.7330   2.7502   2.7502   2.7899
     3.0416   3.0416

     occupation numbers 
     1.0000   1.0000   1.0000   1.0000   1.0000   1.0000   1.0000   1.0000
     1.0000   1.0000   1.0000   1.0000   1.0000   1.0000   1.0000   1.0000
     1.0000   1.0000   1.0000   1.0000   1.0000   1.0000   1.0000   1.0000
     1.0000   1.0000   1.0000   1.0000   1.0000   1.0000   1.0000   1.0000
     1.0000   1.0000   1.0000   1.0000   1.0000   1.0000   1.0000   1.0000
     1.0000   1.0000   1.0000   1.0000   1.0000   1.0000   1.0000   1.0000
     1.0000   1.0000   1.0000   1.0000   1.0000   1.0000   1.0000   1.0000
     1.0000   1.0000   1.0000   1.0000   1.0000   1.0000   1.0000   1.0000
     1.0000   1.0000   1.0000   1.0000   1.0000   1.0000   1.0000   1.0000
     1.0000   1.0000   1.0000   1.0000   1.0000   1.0000   1.0000   1.0000
     1.0000   1.0000   1.0000   1.0000   1.0000   1.0000   1.0000   1.0000
     1.0000   1.0000   1.0000   1.0000   1.0000   1.0000   0.5116   0.0000
     0.0000   0.0000   0.0000   0.0000   0.0000   0.0000   0.0000   0.0000
     0.0000   0.0000   0.0000   0.0000   0.0000   0.0000   0.0000   0.0000
     0.0000   0.0000

          k =-0.0962 0.1667 0.0000 (137449 PWs)   bands (ev):

   -55.5716 -55.5716 -55.4689 -55.4689 -55.4685 -55.4685 -32.0507 -32.0506
   -31.8108 -31.8108 -31.8072 -31.8072 -31.7875 -31.7874 -31.6487 -31.6487
   -31.6471 -31.6471 -31.4076 -31.4076 -31.2599 -31.2599 -31.2529 -31.2529
   -17.1930 -17.1780 -16.6854 -16.5290 -16.1582 -16.1389 -16.0736 -16.0644
   -16.0050 -15.9766 -15.7890 -15.7579 -15.4646 -15.4601 -15.4394 -15.4360
    -6.7040  -6.6877  -6.6536  -6.6486  -6.3616  -6.3252  -6.2303  -6.0906
    -5.9602  -5.8799  -5.7959  -5.7418  -5.6151  -5.5222  -5.4059  -5.3445
    -5.2762  -5.2350  -5.0132  -4.9991  -4.7266  -4.6855  -4.6387  -4.6017
    -4.5421  -4.5190  -4.2861  -4.2502  -4.1540  -4.0838  -4.0007  -3.9145
    -3.8562  -3.7926  -3.7613  -3.7608  -3.6834  -3.6371  -3.6282  -3.2923
    -3.1977  -3.0971  -3.0733  -2.9834  -2.6364  -2.6099  -2.4669  -2.4382
    -1.4489  -1.3716  -0.7993  -0.7705  -0.7632  -0.7432   0.4272   0.6536
     1.3485   1.3541   1.3691   1.3754   2.2027   2.2376   2.2861   2.3013
     2.3270   2.4093   2.5164   2.5818   2.6979   2.7324   2.7358   2.7712
     3.0976   3.1713

     occupation numbers 
     1.0000   1.0000   1.0000   1.0000   1.0000   1.0000   1.0000   1.0000
     1.0000   1.0000   1.0000   1.0000   1.0000   1.0000   1.0000   1.0000
     1.0000   1.0000   1.0000   1.0000   1.0000   1.0000   1.0000   1.0000
     1.0000   1.0000   1.0000   1.0000   1.0000   1.0000   1.0000   1.0000
     1.0000   1.0000   1.0000   1.0000   1.0000   1.0000   1.0000   1.0000
     1.0000   1.0000   1.0000   1.0000   1.0000   1.0000   1.0000   1.0000
     1.0000   1.0000   1.0000   1.0000   1.0000   1.0000   1.0000   1.0000
     1.0000   1.0000   1.0000   1.0000   1.0000   1.0000   1.0000   1.0000
     1.0000   1.0000   1.0000   1.0000   1.0000   1.0000   1.0000   1.0000
     1.0000   1.0000   1.0000   1.0000   1.0000   1.0000   1.0000   1.0000
     1.0000   1.0000   1.0000   1.0000   1.0000   1.0000   1.0000   1.0000
     1.0000   1.0000   1.0000   1.0000   1.0000   1.0000   1.0543   0.0000
     0.0000   0.0000   0.0000   0.0000   0.0000   0.0000   0.0000   0.0000
     0.0000   0.0000   0.0000   0.0000   0.0000   0.0000   0.0000   0.0000
     0.0000   0.0000

          k =-0.1925 0.3333 0.0000 (137535 PWs)   bands (ev):

   -55.5710 -55.5710 -55.4695 -55.4695 -55.4685 -55.4685 -32.0376 -32.0376
   -31.8081 -31.8081 -31.7971 -31.7971 -31.7841 -31.7840 -31.6526 -31.6526
   -31.6475 -31.6475 -31.4148 -31.4148 -31.2778 -31.2778 -31.2563 -31.2563
   -17.1426 -17.1359 -16.6070 -16.4683 -16.2692 -16.1840 -16.0822 -16.0594
   -16.0466 -15.9652 -15.7607 -15.7433 -15.5228 -15.5201 -15.4475 -15.4458
    -6.4921  -6.4808  -6.4743  -6.4510  -6.3159  -6.2410  -5.9720  -5.8845
    -5.8658  -5.7640  -5.6905  -5.6880  -5.4527  -5.4405  -5.3983  -5.3906
    -5.2827  -5.1954  -5.1366  -4.9893  -4.8817  -4.7570  -4.6661  -4.5983
    -4.5613  -4.5171  -4.4826  -4.4569  -4.3593  -4.2362  -4.1246  -4.0228
    -3.9268  -3.9053  -3.8935  -3.8188  -3.6365  -3.6242  -3.5785  -3.5151
    -3.3816  -3.2283  -3.1417  -3.0340  -2.9910  -2.9663  -2.5298  -2.4907
    -1.5241  -1.4927  -0.7898  -0.7659  -0.7043  -0.6841   0.3131   0.5800
     1.3772   1.3852   1.4455   1.4635   1.9963   2.0682   2.1260   2.1798
     2.2128   2.2250   2.3961   2.4949   2.6842   2.7132   2.7382   2.7956
     3.0485   3.0947

     occupation numbers 
     1.0000   1.0000   1.0000   1.0000   1.0000   1.0000   1.0000   1.0000
     1.0000   1.0000   1.0000   1.0000   1.0000   1.0000   1.0000   1.0000
     1.0000   1.0000   1.0000   1.0000   1.0000   1.0000   1.0000   1.0000
     1.0000   1.0000   1.0000   1.0000   1.0000   1.0000   1.0000   1.0000
     1.0000   1.0000   1.0000   1.0000   1.0000   1.0000   1.0000   1.0000
     1.0000   1.0000   1.0000   1.0000   1.0000   1.0000   1.0000   1.0000
     1.0000   1.0000   1.0000   1.0000   1.0000   1.0000   1.0000   1.0000
     1.0000   1.0000   1.0000   1.0000   1.0000   1.0000   1.0000   1.0000
     1.0000   1.0000   1.0000   1.0000   1.0000   1.0000   1.0000   1.0000
     1.0000   1.0000   1.0000   1.0000   1.0000   1.0000   1.0000   1.0000
     1.0000   1.0000   1.0000   1.0000   1.0000   1.0000   1.0000   1.0000
     1.0000   1.0000   1.0000   1.0000   1.0000   1.0000   1.0002   0.0004
     0.0000   0.0000   0.0000   0.0000   0.0000   0.0000   0.0000   0.0000
     0.0000   0.0000   0.0000   0.0000   0.0000   0.0000   0.0000   0.0000
     0.0000   0.0000

          k = 0.2887-0.5000 0.0000 (137556 PWs)   bands (ev):

   -55.5707 -55.5707 -55.4698 -55.4698 -55.4685 -55.4685 -32.0310 -32.0310
   -31.8065 -31.8065 -31.7919 -31.7919 -31.7823 -31.7822 -31.6547 -31.6547
   -31.6478 -31.6477 -31.4186 -31.4186 -31.2871 -31.2871 -31.2579 -31.2579
   -17.1174 -17.1147 -16.4928 -16.4740 -16.3325 -16.2445 -16.0867 -16.0616
   -16.0568 -15.9594 -15.7411 -15.7372 -15.5553 -15.5499 -15.4516 -15.4509
    -6.4400  -6.4334  -6.4014  -6.3682  -6.0979  -6.0163  -5.9211  -5.8836
    -5.7675  -5.6979  -5.6136  -5.5937  -5.4185  -5.3937  -5.3920  -5.3256
    -5.2737  -5.2195  -5.0979  -5.0169  -4.9137  -4.8667  -4.8150  -4.7015
    -4.6556  -4.6153  -4.4927  -4.4902  -4.3275  -4.3136  -4.2246  -4.1829
    -4.0917  -3.9795  -3.9607  -3.9025  -3.5866  -3.5584  -3.5510  -3.5440
    -3.3746  -3.2527  -3.1915  -3.1769  -3.1625  -3.0841  -2.5563  -2.5100
    -1.5537  -1.5501  -0.7865  -0.7797  -0.6701  -0.6573   0.2484   0.5310
     1.3948   1.4012   1.4893   1.5117   1.9132   1.9752   2.0151   2.1350
     2.1771   2.1815   2.3624   2.4664   2.6783   2.6924   2.7406   2.8324
     2.9778   3.0717

     occupation numbers 
     1.0000   1.0000   1.0000   1.0000   1.0000   1.0000   1.0000   1.0000
     1.0000   1.0000   1.0000   1.0000   1.0000   1.0000   1.0000   1.0000
     1.0000   1.0000   1.0000   1.0000   1.0000   1.0000   1.0000   1.0000
     1.0000   1.0000   1.0000   1.0000   1.0000   1.0000   1.0000   1.0000
     1.0000   1.0000   1.0000   1.0000   1.0000   1.0000   1.0000   1.0000
     1.0000   1.0000   1.0000   1.0000   1.0000   1.0000   1.0000   1.0000
     1.0000   1.0000   1.0000   1.0000   1.0000   1.0000   1.0000   1.0000
     1.0000   1.0000   1.0000   1.0000   1.0000   1.0000   1.0000   1.0000
     1.0000   1.0000   1.0000   1.0000   1.0000   1.0000   1.0000   1.0000
     1.0000   1.0000   1.0000   1.0000   1.0000   1.0000   1.0000   1.0000
     1.0000   1.0000   1.0000   1.0000   1.0000   1.0000   1.0000   1.0000
     1.0000   1.0000   1.0000   1.0000   1.0000   1.0000   1.0000   0.0329
     0.0000   0.0000   0.0000   0.0000   0.0000   0.0000   0.0000   0.0000
     0.0000   0.0000   0.0000   0.0000   0.0000   0.0000   0.0000   0.0000
     0.0000   0.0000

          k =-0.0000 0.3333 0.0000 (137410 PWs)   bands (ev):

   -55.5711 -55.5711 -55.4693 -55.4693 -55.4685 -55.4685 -32.0409 -32.0408
   -31.8083 -31.8083 -31.8004 -31.8004 -31.7849 -31.7848 -31.6514 -31.6514
   -31.6476 -31.6476 -31.4128 -31.4128 -31.2721 -31.2721 -31.2566 -31.2566
   -17.1553 -17.1465 -16.6337 -16.4862 -16.2114 -16.1840 -16.1011 -16.0661
   -16.0186 -15.9680 -15.7674 -15.7451 -15.5166 -15.5123 -15.4379 -15.4377
    -6.5438  -6.5345  -6.5222  -6.4983  -6.2800  -6.2800  -6.0930  -5.9341
    -5.9096  -5.8053  -5.7954  -5.6279  -5.5081  -5.4757  -5.4239  -5.3505
    -5.2640  -5.1771  -5.0541  -5.0076  -4.8256  -4.7338  -4.6649  -4.6308
    -4.5463  -4.5450  -4.4179  -4.4113  -4.3173  -4.2866  -4.0586  -3.9113
    -3.8732  -3.8062  -3.8011  -3.7649  -3.7317  -3.7248  -3.5465  -3.4122
    -3.3195  -3.3104  -3.1723  -3.0607  -2.8351  -2.8102  -2.5597  -2.5219
    -1.4947  -1.4591  -0.7885  -0.7780  -0.7074  -0.6995   0.3543   0.6152
     1.3280   1.3298   1.4685   1.4718   2.0680   2.1037   2.1912   2.1912
     2.2951   2.3009   2.4125   2.4707   2.5928   2.6059   2.7592   2.8195
     3.0969   3.1345

     occupation numbers 
     1.0000   1.0000   1.0000   1.0000   1.0000   1.0000   1.0000   1.0000
     1.0000   1.0000   1.0000   1.0000   1.0000   1.0000   1.0000   1.0000
     1.0000   1.0000   1.0000   1.0000   1.0000   1.0000   1.0000   1.0000
     1.0000   1.0000   1.0000   1.0000   1.0000   1.0000   1.0000   1.0000
     1.0000   1.0000   1.0000   1.0000   1.0000   1.0000   1.0000   1.0000
     1.0000   1.0000   1.0000   1.0000   1.0000   1.0000   1.0000   1.0000
     1.0000   1.0000   1.0000   1.0000   1.0000   1.0000   1.0000   1.0000
     1.0000   1.0000   1.0000   1.0000   1.0000   1.0000   1.0000   1.0000
     1.0000   1.0000   1.0000   1.0000   1.0000   1.0000   1.0000   1.0000
     1.0000   1.0000   1.0000   1.0000   1.0000   1.0000   1.0000   1.0000
     1.0000   1.0000   1.0000   1.0000   1.0000   1.0000   1.0000   1.0000
     1.0000   1.0000   1.0000   1.0000   1.0000   1.0000   1.0083   0.0000
     0.0000   0.0000   0.0000   0.0000   0.0000   0.0000   0.0000   0.0000
     0.0000   0.0000   0.0000   0.0000   0.0000   0.0000   0.0000   0.0000
     0.0000   0.0000

          k =-0.0962 0.5000 0.0000 (137449 PWs)   bands (ev):

   -55.5707 -55.5707 -55.4698 -55.4698 -55.4685 -55.4685 -32.0308 -32.0308
   -31.8047 -31.8046 -31.7945 -31.7944 -31.7823 -31.7822 -31.6538 -31.6538
   -31.6485 -31.6485 -31.4182 -31.4182 -31.2842 -31.2842 -31.2608 -31.2608
   -17.1179 -17.1148 -16.5286 -16.4358 -16.3147 -16.2203 -16.1513 -16.0979
   -16.0019 -15.9573 -15.7349 -15.7279 -15.5762 -15.5751 -15.4379 -15.4339
    -6.4624  -6.4521  -6.3205  -6.3099  -6.1641  -6.0566  -5.9463  -5.8915
    -5.8417  -5.7092  -5.6076  -5.4996  -5.4545  -5.3794  -5.3395  -5.3018
    -5.2584  -5.1923  -5.1665  -5.0629  -4.9334  -4.8478  -4.7484  -4.7261
    -4.6636  -4.6178  -4.5533  -4.4202  -4.3664  -4.2879  -4.2509  -4.1460
    -4.0634  -4.0133  -3.7852  -3.7708  -3.6717  -3.6538  -3.6350  -3.5767
    -3.3885  -3.3149  -3.2409  -3.1154  -3.0819  -2.9867  -2.6570  -2.5929
    -1.5292  -1.5196  -0.7850  -0.7784  -0.6814  -0.6607   0.2844   0.5745
     1.3145   1.3163   1.5576   1.5640   1.9705   2.0080   2.0683   2.1735
     2.2100   2.2188   2.2996   2.4064   2.4961   2.5218   2.7782   2.8653
     3.0960   3.1223

     occupation numbers 
     1.0000   1.0000   1.0000   1.0000   1.0000   1.0000   1.0000   1.0000
     1.0000   1.0000   1.0000   1.0000   1.0000   1.0000   1.0000   1.0000
     1.0000   1.0000   1.0000   1.0000   1.0000   1.0000   1.0000   1.0000
     1.0000   1.0000   1.0000   1.0000   1.0000   1.0000   1.0000   1.0000
     1.0000   1.0000   1.0000   1.0000   1.0000   1.0000   1.0000   1.0000
     1.0000   1.0000   1.0000   1.0000   1.0000   1.0000   1.0000   1.0000
     1.0000   1.0000   1.0000   1.0000   1.0000   1.0000   1.0000   1.0000
     1.0000   1.0000   1.0000   1.0000   1.0000   1.0000   1.0000   1.0000
     1.0000   1.0000   1.0000   1.0000   1.0000   1.0000   1.0000   1.0000
     1.0000   1.0000   1.0000   1.0000   1.0000   1.0000   1.0000   1.0000
     1.0000   1.0000   1.0000   1.0000   1.0000   1.0000   1.0000   1.0000
     1.0000   1.0000   1.0000   1.0000   1.0000   1.0000   1.0000   0.0008
     0.0000   0.0000   0.0000   0.0000   0.0000   0.0000   0.0000   0.0000
     0.0000   0.0000   0.0000   0.0000   0.0000   0.0000   0.0000   0.0000
     0.0000   0.0000

          k =-0.0000 0.6667 0.0000 (137418 PWs)   bands (ev):

   -55.5705 -55.5705 -55.4700 -55.4700 -55.4685 -55.4685 -32.0271 -32.0271
   -31.7994 -31.7994 -31.7971 -31.7971 -31.7814 -31.7813 -31.6535 -31.6535
   -31.6499 -31.6499 -31.4196 -31.4196 -31.2855 -31.2855 -31.2651 -31.2651
   -17.1061 -17.1043 -16.4380 -16.4380 -16.3583 -16.1934 -16.1934 -16.1714
   -15.9639 -15.9639 -15.7068 -15.7068 -15.6213 -15.6213 -15.4294 -15.4226
    -6.4626  -6.4275  -6.1829  -6.1829  -6.0598  -6.0598  -5.9233  -5.8693
    -5.8693  -5.7108  -5.5944  -5.4158  -5.4158  -5.4033  -5.3170  -5.3170
    -5.1721  -5.0986  -5.0986  -5.0252  -5.0252  -4.9365  -4.8351  -4.8351
    -4.6776  -4.5532  -4.5532  -4.4610  -4.4352  -4.4352  -4.2032  -4.2032
    -4.1519  -3.9695  -3.8237  -3.8237  -3.7741  -3.7741  -3.6174  -3.5712
    -3.3298  -3.3298  -3.1696  -3.1696  -3.0445  -3.0445  -2.8004  -2.6993
    -1.5275  -1.5034  -0.7758  -0.7758  -0.6774  -0.6774   0.2930   0.5986
     1.2693   1.2693   1.6162   1.6162   1.9784   2.0935   2.0935   2.1834
     2.1834   2.2405   2.2744   2.2744   2.3362   2.3362   2.8102   2.9067
     3.1927   3.2173

     occupation numbers 
     1.0000   1.0000   1.0000   1.0000   1.0000   1.0000   1.0000   1.0000
     1.0000   1.0000   1.0000   1.0000   1.0000   1.0000   1.0000   1.0000
     1.0000   1.0000   1.0000   1.0000   1.0000   1.0000   1.0000   1.0000
     1.0000   1.0000   1.0000   1.0000   1.0000   1.0000   1.0000   1.0000
     1.0000   1.0000   1.0000   1.0000   1.0000   1.0000   1.0000   1.0000
     1.0000   1.0000   1.0000   1.0000   1.0000   1.0000   1.0000   1.0000
     1.0000   1.0000   1.0000   1.0000   1.0000   1.0000   1.0000   1.0000
     1.0000   1.0000   1.0000   1.0000   1.0000   1.0000   1.0000   1.0000
     1.0000   1.0000   1.0000   1.0000   1.0000   1.0000   1.0000   1.0000
     1.0000   1.0000   1.0000   1.0000   1.0000   1.0000   1.0000   1.0000
     1.0000   1.0000   1.0000   1.0000   1.0000   1.0000   1.0000   1.0000
     1.0000   1.0000   1.0000   1.0000   1.0000   1.0000   1.0000   0.0001
     0.0000   0.0000   0.0000   0.0000   0.0000   0.0000   0.0000   0.0000
     0.0000   0.0000   0.0000   0.0000   0.0000   0.0000   0.0000   0.0000
     0.0000   0.0000

     the Fermi energy is     0.4826 ev

!    total energy              =   -1170.21837045 Ry
     estimated scf accuracy    <          6.5E-13 Ry
     smearing contrib. (-TS)   =       0.00013380 Ry
     internal energy E=F+TS    =   -1170.21850425 Ry

     convergence has been achieved in  16 iterations

     Forces acting on atoms (cartesian axes, Ry/au):

     atom    1 type  1   force =     0.00094117    0.00000000    0.00263716
     atom    2 type  1   force =    -0.00047059    0.00081508    0.00263716
     atom    3 type  1   force =    -0.00047059   -0.00081508    0.00263716
     atom    4 type  1   force =    -0.00094117   -0.00000000   -0.00263716
     atom    5 type  1   force =     0.00047059   -0.00081508   -0.00263716
     atom    6 type  1   force =     0.00047059    0.00081508   -0.00263716
     atom    7 type  2   force =     0.00000000   -0.00000000   -0.01153502
     atom    8 type  2   force =    -0.00097881   -0.00000000   -0.00220681
     atom    9 type  2   force =     0.00048941   -0.00084767   -0.00220681
     atom   10 type  2   force =     0.00048941    0.00084767   -0.00220681
     atom   11 type  2   force =     0.00000000   -0.00000000    0.00146666
     atom   12 type  2   force =    -0.00144364    0.00000000    0.00237508
     atom   13 type  2   force =     0.00072182   -0.00125023    0.00237508
     atom   14 type  2   force =     0.00072182    0.00125023    0.00237508
     atom   15 type  2   force =     0.00144364   -0.00000000   -0.00237508
     atom   16 type  2   force =    -0.00072182    0.00125023   -0.00237508
     atom   17 type  2   force =    -0.00072182   -0.00125023   -0.00237508
     atom   18 type  2   force =     0.00000000   -0.00000000   -0.00146666
     atom   19 type  2   force =     0.00097881    0.00000000    0.00220681
     atom   20 type  2   force =    -0.00048941    0.00084767    0.00220681
     atom   21 type  2   force =    -0.00048941   -0.00084767    0.00220681
     atom   22 type  2   force =     0.00000000    0.00000000    0.01153502
     The non-local contrib.  to forces
     atom    1 type  1   force =    -0.23253062   -0.00000000   -0.03846924
     atom    2 type  1   force =     0.11626531   -0.20137742   -0.03846924
     atom    3 type  1   force =     0.11626531    0.20137742   -0.03846924
     atom    4 type  1   force =     0.23253062   -0.00000000    0.03846924
     atom    5 type  1   force =    -0.11626531    0.20137742    0.03846924
     atom    6 type  1   force =    -0.11626531   -0.20137742    0.03846924
     atom    7 type  2   force =     0.00000000    0.00000000    0.42735464
     atom    8 type  2   force =    -0.17867450    0.00000000    0.27475233
     atom    9 type  2   force =     0.08933725   -0.15473666    0.27475233
     atom   10 type  2   force =     0.08933725    0.15473666    0.27475233
     atom   11 type  2   force =    -0.00000000    0.00000000   -0.35004481
     atom   12 type  2   force =     0.19852187   -0.00000000   -0.28157725
     atom   13 type  2   force =    -0.09926093    0.17192498   -0.28157725
     atom   14 type  2   force =    -0.09926093   -0.17192498   -0.28157725
     atom   15 type  2   force =    -0.19852187   -0.00000000    0.28157725
     atom   16 type  2   force =     0.09926093   -0.17192498    0.28157725
     atom   17 type  2   force =     0.09926093    0.17192498    0.28157725
     atom   18 type  2   force =     0.00000000   -0.00000000    0.35004481
     atom   19 type  2   force =     0.17867450    0.00000000   -0.27475233
     atom   20 type  2   force =    -0.08933725    0.15473666   -0.27475233
     atom   21 type  2   force =    -0.08933725   -0.15473666   -0.27475233
     atom   22 type  2   force =     0.00000000    0.00000000   -0.42735464
     The ionic contribution  to forces
     atom    1 type  1   force =     9.45992901    0.00000000  -67.30102588
     atom    2 type  1   force =    -4.72996451    8.19253884  -67.30102588
     atom    3 type  1   force =    -4.72996451   -8.19253884  -67.30102588
     atom    4 type  1   force =    -9.45992901   -0.00000000   67.30102588
     atom    5 type  1   force =     4.72996451   -8.19253884   67.30102588
     atom    6 type  1   force =     4.72996451    8.19253884   67.30102588
     atom    7 type  2   force =    -0.00000000   -0.00000000  -71.31700010
     atom    8 type  2   force =     3.52335470   -0.00000000  -60.08304267
     atom    9 type  2   force =    -1.76167735    3.05131467  -60.08304267
     atom   10 type  2   force =    -1.76167735   -3.05131467  -60.08304267
     atom   11 type  2   force =     0.00000000   -0.00000000  -10.55857007
     atom   12 type  2   force =    -6.86209410   -0.00000000   -6.87028774
     atom   13 type  2   force =     3.43104705   -5.94274782   -6.87028774
     atom   14 type  2   force =     3.43104705    5.94274782   -6.87028774
     atom   15 type  2   force =     6.86209410    0.00000000    6.87028774
     atom   16 type  2   force =    -3.43104705    5.94274782    6.87028774
     atom   17 type  2   force =    -3.43104705   -5.94274782    6.87028774
     atom   18 type  2   force =    -0.00000000    0.00000000   10.55857007
     atom   19 type  2   force =    -3.52335470    0.00000000   60.08304267
     atom   20 type  2   force =     1.76167735   -3.05131467   60.08304267
     atom   21 type  2   force =     1.76167735    3.05131467   60.08304267
     atom   22 type  2   force =     0.00000000    0.00000000   71.31700010
     The local contribution  to forces
     atom    1 type  1   force =    -9.22423570   -0.00000000   67.33952344
     atom    2 type  1   force =     4.61211785   -7.98842245   67.33952344
     atom    3 type  1   force =     4.61211785    7.98842245   67.33952344
     atom    4 type  1   force =     9.22423570    0.00000000  -67.33952344
     atom    5 type  1   force =    -4.61211785    7.98842245  -67.33952344
     atom    6 type  1   force =    -4.61211785   -7.98842245  -67.33952344
     atom    7 type  2   force =    -0.00000000    0.00000000   70.87684019
     atom    8 type  2   force =    -3.34611454    0.00000000   59.80465175
     atom    9 type  2   force =     1.67305727   -2.89782020   59.80465175
     atom   10 type  2   force =     1.67305727    2.89782020   59.80465175
     atom   11 type  2   force =     0.00000000    0.00000000   10.90779126
     atom   12 type  2   force =     6.66309068   -0.00000000    7.15356673
     atom   13 type  2   force =    -3.33154534    5.77040580    7.15356673
     atom   14 type  2   force =    -3.33154534   -5.77040580    7.15356673
     atom   15 type  2   force =    -6.66309068    0.00000000   -7.15356673
     atom   16 type  2   force =     3.33154534   -5.77040580   -7.15356673
     atom   17 type  2   force =     3.33154534    5.77040580   -7.15356673
     atom   18 type  2   force =    -0.00000000   -0.00000000  -10.90779126
     atom   19 type  2   force =     3.34611454   -0.00000000  -59.80465175
     atom   20 type  2   force =    -1.67305727    2.89782020  -59.80465175
     atom   21 type  2   force =    -1.67305727   -2.89782020  -59.80465175
     atom   22 type  2   force =     0.00000000   -0.00000000  -70.87684019
     The core correction contribution to forces
     atom    1 type  1   force =     0.00000000    0.00000000    0.00000000
     atom    2 type  1   force =     0.00000000    0.00000000    0.00000000
     atom    3 type  1   force =     0.00000000    0.00000000    0.00000000
     atom    4 type  1   force =     0.00000000    0.00000000    0.00000000
     atom    5 type  1   force =     0.00000000    0.00000000    0.00000000
     atom    6 type  1   force =     0.00000000    0.00000000    0.00000000
     atom    7 type  2   force =     0.00000000    0.00000000    0.00000000
     atom    8 type  2   force =     0.00000000    0.00000000    0.00000000
     atom    9 type  2   force =     0.00000000    0.00000000    0.00000000
     atom   10 type  2   force =     0.00000000    0.00000000    0.00000000
     atom   11 type  2   force =     0.00000000    0.00000000    0.00000000
     atom   12 type  2   force =     0.00000000    0.00000000    0.00000000
     atom   13 type  2   force =     0.00000000    0.00000000    0.00000000
     atom   14 type  2   force =     0.00000000    0.00000000    0.00000000
     atom   15 type  2   force =     0.00000000    0.00000000    0.00000000
     atom   16 type  2   force =     0.00000000    0.00000000    0.00000000
     atom   17 type  2   force =     0.00000000    0.00000000    0.00000000
     atom   18 type  2   force =     0.00000000    0.00000000    0.00000000
     atom   19 type  2   force =     0.00000000    0.00000000    0.00000000
     atom   20 type  2   force =     0.00000000    0.00000000    0.00000000
     atom   21 type  2   force =     0.00000000    0.00000000    0.00000000
     atom   22 type  2   force =     0.00000000    0.00000000    0.00000000
     The Hubbard contrib.    to forces
     atom    1 type  1   force =     0.00000000    0.00000000    0.00000000
     atom    2 type  1   force =     0.00000000    0.00000000    0.00000000
     atom    3 type  1   force =     0.00000000    0.00000000    0.00000000
     atom    4 type  1   force =     0.00000000    0.00000000    0.00000000
     atom    5 type  1   force =     0.00000000    0.00000000    0.00000000
     atom    6 type  1   force =     0.00000000    0.00000000    0.00000000
     atom    7 type  2   force =     0.00000000    0.00000000    0.00000000
     atom    8 type  2   force =     0.00000000    0.00000000    0.00000000
     atom    9 type  2   force =     0.00000000    0.00000000    0.00000000
     atom   10 type  2   force =     0.00000000    0.00000000    0.00000000
     atom   11 type  2   force =     0.00000000    0.00000000    0.00000000
     atom   12 type  2   force =     0.00000000    0.00000000    0.00000000
     atom   13 type  2   force =     0.00000000    0.00000000    0.00000000
     atom   14 type  2   force =     0.00000000    0.00000000    0.00000000
     atom   15 type  2   force =     0.00000000    0.00000000    0.00000000
     atom   16 type  2   force =     0.00000000    0.00000000    0.00000000
     atom   17 type  2   force =     0.00000000    0.00000000    0.00000000
     atom   18 type  2   force =     0.00000000    0.00000000    0.00000000
     atom   19 type  2   force =     0.00000000    0.00000000    0.00000000
     atom   20 type  2   force =     0.00000000    0.00000000    0.00000000
     atom   21 type  2   force =     0.00000000    0.00000000    0.00000000
     atom   22 type  2   force =     0.00000000    0.00000000    0.00000000
     The SCF correction term to forces
     atom    1 type  1   force =    -0.00000044   -0.00000000   -0.00000032
     atom    2 type  1   force =     0.00000022   -0.00000038   -0.00000032
     atom    3 type  1   force =     0.00000022    0.00000038   -0.00000032
     atom    4 type  1   force =     0.00000044   -0.00000000    0.00000032
     atom    5 type  1   force =    -0.00000022    0.00000038    0.00000032
     atom    6 type  1   force =    -0.00000022   -0.00000038    0.00000032
     atom    7 type  2   force =     0.00000000    0.00000000    0.00000093
     atom    8 type  2   force =    -0.00000040    0.00000000    0.00000055
     atom    9 type  2   force =     0.00000020   -0.00000035    0.00000055
     atom   10 type  2   force =     0.00000020    0.00000035    0.00000055
     atom   11 type  2   force =    -0.00000000   -0.00000000   -0.00000065
     atom   12 type  2   force =     0.00000015   -0.00000000   -0.00000062
     atom   13 type  2   force =    -0.00000007    0.00000013   -0.00000062
     atom   14 type  2   force =    -0.00000007   -0.00000013   -0.00000062
     atom   15 type  2   force =    -0.00000015    0.00000000    0.00000062
     atom   16 type  2   force =     0.00000007   -0.00000013    0.00000062
     atom   17 type  2   force =     0.00000007    0.00000013    0.00000062
     atom   18 type  2   force =     0.00000000    0.00000000    0.00000065
     atom   19 type  2   force =     0.00000040   -0.00000000   -0.00000055
     atom   20 type  2   force =    -0.00000020    0.00000035   -0.00000055
     atom   21 type  2   force =    -0.00000020   -0.00000035   -0.00000055
     atom   22 type  2   force =    -0.00000000   -0.00000000   -0.00000093

     DFT-D3 dispersion contribution to forces:
     atom    1 type  1   force =    -0.00222108    0.00000000    0.00260916
     atom    2 type  1   force =     0.00111054   -0.00192351    0.00260916
     atom    3 type  1   force =     0.00111054    0.00192351    0.00260916
     atom    4 type  1   force =     0.00222108   -0.00000000   -0.00260916
     atom    5 type  1   force =    -0.00111054    0.00192351   -0.00260916
     atom    6 type  1   force =    -0.00111054   -0.00192351   -0.00260916
     atom    7 type  2   force =    -0.00000000   -0.00000000    0.00126933
     atom    8 type  2   force =     0.00045594    0.00000000    0.00143124
     atom    9 type  2   force =    -0.00022797    0.00039485    0.00143124
     atom   10 type  2   force =    -0.00022797   -0.00039485    0.00143124
     atom   11 type  2   force =     0.00000000    0.00000000    0.00229092
     atom   12 type  2   force =    -0.00096224   -0.00000000    0.00067397
     atom   13 type  2   force =     0.00048112   -0.00083332    0.00067397
     atom   14 type  2   force =     0.00048112    0.00083332    0.00067397
     atom   15 type  2   force =     0.00096224    0.00000000   -0.00067397
     atom   16 type  2   force =    -0.00048112    0.00083332   -0.00067397
     atom   17 type  2   force =    -0.00048112   -0.00083332   -0.00067397
     atom   18 type  2   force =    -0.00000000   -0.00000000   -0.00229092
     atom   19 type  2   force =    -0.00045594   -0.00000000   -0.00143124
     atom   20 type  2   force =     0.00022797   -0.00039485   -0.00143124
     atom   21 type  2   force =     0.00022797    0.00039485   -0.00143124
     atom   22 type  2   force =     0.00000000    0.00000000   -0.00126933

     Total force =     0.019969     Total SCF correction =     0.000003

     DFT-D3 dispersion Force =     0.010295


     Computing stress (Cartesian axis) and pressure

          total   stress  (Ry/bohr**3)                   (kbar)     P=        3.09
   0.00002058  -0.00000000  -0.00000000            3.03       -0.00       -0.00
   0.00000000   0.00002058  -0.00000000            0.00        3.03       -0.00
   0.00000000   0.00000000   0.00002181            0.00        0.00        3.21

     kinetic stress (kbar)   4689.13     -0.00      0.00
                               -0.00   4689.13      0.00
                                0.00      0.00   4653.52

     local   stress (kbar)-227820.47     -0.00      0.00
                               -0.00-227820.47      0.00
                                0.00      0.00 219925.73

     nonloc. stress (kbar)   4263.86     -0.00     -0.00
                                0.00   4263.86     -0.00
                               -0.00      0.00   4277.63

     hartree stress (kbar) 112224.63     -0.00     -0.00
                               -0.00 112224.63      0.00
                               -0.00      0.00-109303.83

     exc-cor stress (kbar)   -992.81     -0.00      0.00
                               -0.00   -992.81      0.00
                                0.00      0.00   -994.58

     corecor stress (kbar)      0.00      0.00      0.00
                                0.00      0.00      0.00
                                0.00      0.00      0.00

     ewald   stress (kbar) 107643.50     -0.00     -0.00
                               -0.00 107643.50      0.00
                               -0.00      0.00-118551.38

     hubbard stress (kbar)      0.00      0.00      0.00
                                0.00      0.00      0.00
                                0.00      0.00      0.00

     DFT-D   stress (kbar)     -4.81     -0.00     -0.00
                               -0.00     -4.81      0.00
                               -0.00      0.00     -3.88

     XDM     stress (kbar)      0.00      0.00      0.00
                                0.00      0.00      0.00
                                0.00      0.00      0.00

     dft-nl  stress (kbar)      0.00      0.00      0.00
                                0.00      0.00      0.00
                                0.00      0.00      0.00

     TS-vdW  stress (kbar)      0.00      0.00      0.00
                                0.00      0.00      0.00
                                0.00      0.00      0.00

     MDB     stress (kbar)      0.00      0.00      0.00
                                0.00      0.00      0.00
                                0.00      0.00      0.00

     3D-RISM stress (kbar)      0.00      0.00      0.00
                                0.00      0.00      0.00
                                0.00      0.00      0.00


     Damped Dynamics Calculation

     Entering Dynamics:    iteration =     1

ATOMIC_POSITIONS (crystal)
Nb               0.1385976885       -0.1385976885       -0.1009721979
Nb               0.1385976885        0.2771953769       -0.1009721979
Nb              -0.2771953769       -0.1385976885       -0.1009721979
Nb              -0.1385976885        0.1385976885        0.1009721979
Nb              -0.1385976885       -0.2771953769        0.1009721979
Nb               0.2771953769        0.1385976885        0.1009721979
Cl              -0.0000000000       -0.0000000000       -0.1605086615
Cl              -0.4981044971        0.4981044971       -0.1452950732
Cl              -0.4981044971        0.0037910057       -0.1452950732
Cl              -0.0037910057        0.4981044971       -0.1452950732
Cl               0.3333333333       -0.3333333333       -0.0566779431
Cl              -0.1652431108        0.1652431108       -0.0476804347
Cl              -0.1652431108       -0.3304862217       -0.0476804347
Cl               0.3304862217        0.1652431108       -0.0476804347
Cl               0.1652431108       -0.1652431108        0.0476804347
Cl               0.1652431108        0.3304862217        0.0476804347
Cl              -0.3304862217       -0.1652431108        0.0476804347
Cl              -0.3333333333        0.3333333333        0.0566779431
Cl               0.4981044971       -0.4981044971        0.1452950732
Cl               0.4981044971       -0.0037910057        0.1452950732
Cl               0.0037910057       -0.4981044971        0.1452950732
Cl               0.0000000000        0.0000000000        0.1605086615



     Writing config-only to output data dir ./out/Nb3Cl8.save/ :
     XML data file
     NEW-OLD atomic charge density approx. for the potential

     negative rho (up, down):  1.346E-05 0.000E+00

     total cpu time spent up to now is       62.7 secs

     per-process dynamical memory:   228.4 Mb

     Self-consistent Calculation

     iteration #  1     ecut=   100.00 Ry     beta= 0.70
     Davidson diagonalization with overlap

---- Real-time Memory Report at c_bands before calling an iterative solver
           357 MiB given to the printing process from OS
           223 MiB allocation reported by mallinfo(arena+hblkhd)
        322290 MiB available memory on the node where the printing process lives
------------------
     ethr =  1.00E-06,  avg # of iterations =  3.0

     Threshold (ethr) on eigenvalues was too large:
     Diagonalizing with lowered threshold

     Davidson diagonalization with overlap

---- Real-time Memory Report at c_bands before calling an iterative solver
           357 MiB given to the printing process from OS
           183 MiB allocation reported by mallinfo(arena+hblkhd)
        325161 MiB available memory on the node where the printing process lives
------------------
     ethr =  3.84E-09,  avg # of iterations =  8.9

     negative rho (up, down):  3.556E-06 0.000E+00

     total cpu time spent up to now is       68.2 secs

     total energy              =   -1170.21852870 Ry
     estimated scf accuracy    <       0.00000653 Ry

     iteration #  2     ecut=   100.00 Ry     beta= 0.70
     Davidson diagonalization with overlap

---- Real-time Memory Report at c_bands before calling an iterative solver
           357 MiB given to the printing process from OS
           198 MiB allocation reported by mallinfo(arena+hblkhd)
        323079 MiB available memory on the node where the printing process lives
------------------
     ethr =  3.44E-09,  avg # of iterations =  4.9

     negative rho (up, down):  2.610E-06 0.000E+00

     total cpu time spent up to now is       70.4 secs

     total energy              =   -1170.21852761 Ry
     estimated scf accuracy    <       0.00002013 Ry

     iteration #  3     ecut=   100.00 Ry     beta= 0.70
     Davidson diagonalization with overlap

---- Real-time Memory Report at c_bands before calling an iterative solver
           357 MiB given to the printing process from OS
           199 MiB allocation reported by mallinfo(arena+hblkhd)
        323151 MiB available memory on the node where the printing process lives
------------------
     ethr =  3.44E-09,  avg # of iterations =  4.4

     negative rho (up, down):  1.353E-06 0.000E+00

     total cpu time spent up to now is       72.4 secs

     total energy              =   -1170.21853125 Ry
     estimated scf accuracy    <       0.00000127 Ry

     iteration #  4     ecut=   100.00 Ry     beta= 0.70
     Davidson diagonalization with overlap

---- Real-time Memory Report at c_bands before calling an iterative solver
           357 MiB given to the printing process from OS
           201 MiB allocation reported by mallinfo(arena+hblkhd)
        323175 MiB available memory on the node where the printing process lives
------------------
     ethr =  6.67E-10,  avg # of iterations =  6.0

     negative rho (up, down):  5.063E-07 0.000E+00

     total cpu time spent up to now is       74.5 secs

     total energy              =   -1170.21853146 Ry
     estimated scf accuracy    <       0.00000081 Ry

     iteration #  5     ecut=   100.00 Ry     beta= 0.70
     Davidson diagonalization with overlap

---- Real-time Memory Report at c_bands before calling an iterative solver
           357 MiB given to the printing process from OS
           202 MiB allocation reported by mallinfo(arena+hblkhd)
        323113 MiB available memory on the node where the printing process lives
------------------
     ethr =  4.25E-10,  avg # of iterations =  3.3

     negative rho (up, down):  6.800E-08 0.000E+00

     total cpu time spent up to now is       76.3 secs

     total energy              =   -1170.21853159 Ry
     estimated scf accuracy    <       0.00000002 Ry

     iteration #  6     ecut=   100.00 Ry     beta= 0.70
     Davidson diagonalization with overlap

---- Real-time Memory Report at c_bands before calling an iterative solver
           357 MiB given to the printing process from OS
           203 MiB allocation reported by mallinfo(arena+hblkhd)
        323084 MiB available memory on the node where the printing process lives
------------------
     ethr =  9.17E-12,  avg # of iterations = 11.6

     total cpu time spent up to now is       79.0 secs

     total energy              =   -1170.21853160 Ry
     estimated scf accuracy    <          2.7E-09 Ry

     iteration #  7     ecut=   100.00 Ry     beta= 0.70
     Davidson diagonalization with overlap

---- Real-time Memory Report at c_bands before calling an iterative solver
           357 MiB given to the printing process from OS
           205 MiB allocation reported by mallinfo(arena+hblkhd)
        323061 MiB available memory on the node where the printing process lives
------------------
     ethr =  1.44E-12,  avg # of iterations =  3.6

     total cpu time spent up to now is       81.0 secs

     total energy              =   -1170.21853160 Ry
     estimated scf accuracy    <          3.4E-10 Ry

     iteration #  8     ecut=   100.00 Ry     beta= 0.70
     Davidson diagonalization with overlap

---- Real-time Memory Report at c_bands before calling an iterative solver
           357 MiB given to the printing process from OS
           206 MiB allocation reported by mallinfo(arena+hblkhd)
        323045 MiB available memory on the node where the printing process lives
------------------
     ethr =  1.80E-13,  avg # of iterations =  8.0

     total cpu time spent up to now is       83.3 secs

     total energy              =   -1170.21853160 Ry
     estimated scf accuracy    <          2.2E-11 Ry

     iteration #  9     ecut=   100.00 Ry     beta= 0.70
     Davidson diagonalization with overlap

---- Real-time Memory Report at c_bands before calling an iterative solver
           357 MiB given to the printing process from OS
           208 MiB allocation reported by mallinfo(arena+hblkhd)
        323031 MiB available memory on the node where the printing process lives
------------------
     ethr =  1.00E-13,  avg # of iterations =  1.3

     total cpu time spent up to now is       84.8 secs

     total energy              =   -1170.21853160 Ry
     estimated scf accuracy    <          2.7E-12 Ry

     iteration # 10     ecut=   100.00 Ry     beta= 0.70
     Davidson diagonalization with overlap

---- Real-time Memory Report at c_bands before calling an iterative solver
           357 MiB given to the printing process from OS
           209 MiB allocation reported by mallinfo(arena+hblkhd)
        322972 MiB available memory on the node where the printing process lives
------------------
     ethr =  1.00E-13,  avg # of iterations =  1.0

     total cpu time spent up to now is       86.2 secs

     End of self-consistent calculation

          k = 0.0000 0.0000 0.0000 (137531 PWs)   bands (ev):

   -55.5746 -55.5746 -55.4715 -55.4715 -55.4714 -55.4714 -32.0581 -32.0581
   -31.8142 -31.8142 -31.8141 -31.8141 -31.7911 -31.7910 -31.6497 -31.6497
   -31.6497 -31.6497 -31.4069 -31.4069 -31.2535 -31.2535 -31.2535 -31.2535
   -17.2113 -17.1914 -16.7104 -16.5525 -16.1354 -16.1190 -16.0688 -16.0688
   -15.9840 -15.9840 -15.8002 -15.7661 -15.4349 -15.4349 -15.4307 -15.4307
    -6.7938  -6.7938  -6.7284  -6.7284  -6.5031  -6.3406  -6.2452  -6.1965
    -5.9149  -5.8174  -5.8174  -5.7726  -5.7726  -5.5374  -5.3547  -5.3495
    -5.3260  -5.3260  -5.0091  -5.0091  -4.7610  -4.6794  -4.5475  -4.5475
    -4.5348  -4.5348  -4.1381  -4.0738  -4.0401  -4.0401  -3.9725  -3.9725
    -3.8075  -3.8075  -3.7162  -3.7145  -3.6739  -3.6739  -3.6174  -3.2579
    -3.0456  -3.0456  -2.9884  -2.9884  -2.4231  -2.4231  -2.4132  -2.4132
    -1.4068  -1.3036  -0.8103  -0.8103  -0.7721  -0.7721   0.4720   0.6708
     1.3314   1.3314   1.3338   1.3338   2.2866   2.3314   2.3314   2.3728
     2.3728   2.5063   2.7115   2.7310   2.7310   2.7482   2.7482   2.7879
     3.0396   3.0396

     occupation numbers 
     1.0000   1.0000   1.0000   1.0000   1.0000   1.0000   1.0000   1.0000
     1.0000   1.0000   1.0000   1.0000   1.0000   1.0000   1.0000   1.0000
     1.0000   1.0000   1.0000   1.0000   1.0000   1.0000   1.0000   1.0000
     1.0000   1.0000   1.0000   1.0000   1.0000   1.0000   1.0000   1.0000
     1.0000   1.0000   1.0000   1.0000   1.0000   1.0000   1.0000   1.0000
     1.0000   1.0000   1.0000   1.0000   1.0000   1.0000   1.0000   1.0000
     1.0000   1.0000   1.0000   1.0000   1.0000   1.0000   1.0000   1.0000
     1.0000   1.0000   1.0000   1.0000   1.0000   1.0000   1.0000   1.0000
     1.0000   1.0000   1.0000   1.0000   1.0000   1.0000   1.0000   1.0000
     1.0000   1.0000   1.0000   1.0000   1.0000   1.0000   1.0000   1.0000
     1.0000   1.0000   1.0000   1.0000   1.0000   1.0000   1.0000   1.0000
     1.0000   1.0000   1.0000   1.0000   1.0000   1.0000   0.5164   0.0000
     0.0000   0.0000   0.0000   0.0000   0.0000   0.0000   0.0000   0.0000
     0.0000   0.0000   0.0000   0.0000   0.0000   0.0000   0.0000   0.0000
     0.0000   0.0000

          k =-0.0962 0.1667 0.0000 (137449 PWs)   bands (ev):

   -55.5743 -55.5743 -55.4718 -55.4718 -55.4714 -55.4714 -32.0517 -32.0517
   -31.8130 -31.8130 -31.8093 -31.8093 -31.7894 -31.7893 -31.6515 -31.6515
   -31.6499 -31.6498 -31.4103 -31.4103 -31.2622 -31.2622 -31.2552 -31.2552
   -17.1860 -17.1704 -16.6866 -16.5305 -16.1613 -16.1424 -16.0761 -16.0664
   -16.0069 -15.9785 -15.7887 -15.7577 -15.4641 -15.4596 -15.4389 -15.4355
    -6.7010  -6.6851  -6.6506  -6.6448  -6.3579  -6.3187  -6.2286  -6.0914
    -5.9613  -5.8799  -5.7956  -5.7423  -5.6152  -5.5234  -5.4067  -5.3454
    -5.2765  -5.2345  -5.0140  -4.9995  -4.7274  -4.6840  -4.6392  -4.5996
    -4.5383  -4.5156  -4.2855  -4.2512  -4.1536  -4.0839  -4.0022  -3.9162
    -3.8581  -3.7934  -3.7624  -3.7610  -3.6843  -3.6381  -3.6298  -3.2933
    -3.1996  -3.0991  -3.0749  -2.9850  -2.6359  -2.6094  -2.4663  -2.4377
    -1.4502  -1.3727  -0.8003  -0.7717  -0.7639  -0.7443   0.4247   0.6512
     1.3464   1.3521   1.3666   1.3730   2.1992   2.2309   2.2796   2.2937
     2.3205   2.4063   2.5133   2.5791   2.6908   2.7289   2.7308   2.7697
     3.0951   3.1687

     occupation numbers 
     1.0000   1.0000   1.0000   1.0000   1.0000   1.0000   1.0000   1.0000
     1.0000   1.0000   1.0000   1.0000   1.0000   1.0000   1.0000   1.0000
     1.0000   1.0000   1.0000   1.0000   1.0000   1.0000   1.0000   1.0000
     1.0000   1.0000   1.0000   1.0000   1.0000   1.0000   1.0000   1.0000
     1.0000   1.0000   1.0000   1.0000   1.0000   1.0000   1.0000   1.0000
     1.0000   1.0000   1.0000   1.0000   1.0000   1.0000   1.0000   1.0000
     1.0000   1.0000   1.0000   1.0000   1.0000   1.0000   1.0000   1.0000
     1.0000   1.0000   1.0000   1.0000   1.0000   1.0000   1.0000   1.0000
     1.0000   1.0000   1.0000   1.0000   1.0000   1.0000   1.0000   1.0000
     1.0000   1.0000   1.0000   1.0000   1.0000   1.0000   1.0000   1.0000
     1.0000   1.0000   1.0000   1.0000   1.0000   1.0000   1.0000   1.0000
     1.0000   1.0000   1.0000   1.0000   1.0000   1.0000   1.0543   0.0000
     0.0000   0.0000   0.0000   0.0000   0.0000   0.0000   0.0000   0.0000
     0.0000   0.0000   0.0000   0.0000   0.0000   0.0000   0.0000   0.0000
     0.0000   0.0000

          k =-0.1925 0.3333 0.0000 (137535 PWs)   bands (ev):

   -55.5737 -55.5737 -55.4724 -55.4724 -55.4715 -55.4715 -32.0387 -32.0387
   -31.8102 -31.8102 -31.7993 -31.7993 -31.7860 -31.7859 -31.6554 -31.6554
   -31.6503 -31.6503 -31.4175 -31.4175 -31.2801 -31.2801 -31.2585 -31.2585
   -17.1347 -17.1277 -16.6091 -16.4708 -16.2718 -16.1869 -16.0849 -16.0615
   -16.0488 -15.9672 -15.7604 -15.7431 -15.5224 -15.5197 -15.4470 -15.4453
    -6.4882  -6.4770  -6.4698  -6.4470  -6.3129  -6.2360  -5.9690  -5.8846
    -5.8655  -5.7651  -5.6913  -5.6872  -5.4532  -5.4423  -5.3986  -5.3907
    -5.2822  -5.1928  -5.1369  -4.9893  -4.8825  -4.7580  -4.6673  -4.5974
    -4.5621  -4.5148  -4.4835  -4.4559  -4.3590  -4.2363  -4.1253  -4.0237
    -3.9286  -3.9059  -3.8944  -3.8193  -3.6382  -3.6251  -3.5796  -3.5168
    -3.3831  -3.2297  -3.1434  -3.0354  -2.9911  -2.9669  -2.5294  -2.4904
    -1.5256  -1.4942  -0.7900  -0.7659  -0.7053  -0.6850   0.3111   0.5781
     1.3748   1.3829   1.4423   1.4605   1.9943   2.0667   2.1226   2.1747
     2.2058   2.2195   2.3900   2.4908   2.6827   2.7119   2.7287   2.7862
     3.0455   3.0925

     occupation numbers 
     1.0000   1.0000   1.0000   1.0000   1.0000   1.0000   1.0000   1.0000
     1.0000   1.0000   1.0000   1.0000   1.0000   1.0000   1.0000   1.0000
     1.0000   1.0000   1.0000   1.0000   1.0000   1.0000   1.0000   1.0000
     1.0000   1.0000   1.0000   1.0000   1.0000   1.0000   1.0000   1.0000
     1.0000   1.0000   1.0000   1.0000   1.0000   1.0000   1.0000   1.0000
     1.0000   1.0000   1.0000   1.0000   1.0000   1.0000   1.0000   1.0000
     1.0000   1.0000   1.0000   1.0000   1.0000   1.0000   1.0000   1.0000
     1.0000   1.0000   1.0000   1.0000   1.0000   1.0000   1.0000   1.0000
     1.0000   1.0000   1.0000   1.0000   1.0000   1.0000   1.0000   1.0000
     1.0000   1.0000   1.0000   1.0000   1.0000   1.0000   1.0000   1.0000
     1.0000   1.0000   1.0000   1.0000   1.0000   1.0000   1.0000   1.0000
     1.0000   1.0000   1.0000   1.0000   1.0000   1.0000   1.0002   0.0004
     0.0000   0.0000   0.0000   0.0000   0.0000   0.0000   0.0000   0.0000
     0.0000   0.0000   0.0000   0.0000   0.0000   0.0000   0.0000   0.0000
     0.0000   0.0000

          k = 0.2887-0.5000 0.0000 (137556 PWs)   bands (ev):

   -55.5734 -55.5734 -55.4727 -55.4727 -55.4715 -55.4715 -32.0321 -32.0320
   -31.8086 -31.8086 -31.7940 -31.7940 -31.7842 -31.7841 -31.6575 -31.6575
   -31.6505 -31.6505 -31.4213 -31.4213 -31.2894 -31.2894 -31.2601 -31.2601
   -17.1090 -17.1062 -16.4961 -16.4767 -16.3351 -16.2463 -16.0894 -16.0642
   -16.0590 -15.9614 -15.7407 -15.7368 -15.5550 -15.5497 -15.4510 -15.4503
    -6.4347  -6.4278  -6.3973  -6.3631  -6.0987  -6.0154  -5.9152  -5.8802
    -5.7671  -5.6955  -5.6143  -5.5922  -5.4187  -5.3940  -5.3928  -5.3266
    -5.2730  -5.2199  -5.0996  -5.0179  -4.9157  -4.8679  -4.8159  -4.7017
    -4.6560  -4.6174  -4.4905  -4.4883  -4.3275  -4.3140  -4.2254  -4.1831
    -4.0928  -3.9809  -3.9614  -3.9032  -3.5882  -3.5593  -3.5515  -3.5450
    -3.3762  -3.2546  -3.1933  -3.1774  -3.1642  -3.0854  -2.5559  -2.5098
    -1.5554  -1.5517  -0.7863  -0.7793  -0.6709  -0.6581   0.2465   0.5293
     1.3924   1.3988   1.4860   1.5085   1.9115   1.9748   2.0123   2.1305
     2.1704   2.1755   2.3556   2.4618   2.6768   2.6912   2.7303   2.8222
     2.9755   3.0701

     occupation numbers 
     1.0000   1.0000   1.0000   1.0000   1.0000   1.0000   1.0000   1.0000
     1.0000   1.0000   1.0000   1.0000   1.0000   1.0000   1.0000   1.0000
     1.0000   1.0000   1.0000   1.0000   1.0000   1.0000   1.0000   1.0000
     1.0000   1.0000   1.0000   1.0000   1.0000   1.0000   1.0000   1.0000
     1.0000   1.0000   1.0000   1.0000   1.0000   1.0000   1.0000   1.0000
     1.0000   1.0000   1.0000   1.0000   1.0000   1.0000   1.0000   1.0000
     1.0000   1.0000   1.0000   1.0000   1.0000   1.0000   1.0000   1.0000
     1.0000   1.0000   1.0000   1.0000   1.0000   1.0000   1.0000   1.0000
     1.0000   1.0000   1.0000   1.0000   1.0000   1.0000   1.0000   1.0000
     1.0000   1.0000   1.0000   1.0000   1.0000   1.0000   1.0000   1.0000
     1.0000   1.0000   1.0000   1.0000   1.0000   1.0000   1.0000   1.0000
     1.0000   1.0000   1.0000   1.0000   1.0000   1.0000   1.0000   0.0312
     0.0000   0.0000   0.0000   0.0000   0.0000   0.0000   0.0000   0.0000
     0.0000   0.0000   0.0000   0.0000   0.0000   0.0000   0.0000   0.0000
     0.0000   0.0000

          k =-0.0000 0.3333 0.0000 (137410 PWs)   bands (ev):

   -55.5738 -55.5738 -55.4723 -55.4722 -55.4714 -55.4714 -32.0419 -32.0419
   -31.8104 -31.8104 -31.8026 -31.8025 -31.7869 -31.7868 -31.6542 -31.6541
   -31.6504 -31.6504 -31.4155 -31.4155 -31.2744 -31.2744 -31.2589 -31.2589
   -17.1477 -17.1385 -16.6356 -16.4883 -16.2143 -16.1870 -16.1038 -16.0681
   -16.0207 -15.9700 -15.7671 -15.7449 -15.5162 -15.5119 -15.4373 -15.4372
    -6.5404  -6.5313  -6.5191  -6.4941  -6.2745  -6.2736  -6.0922  -5.9349
    -5.9100  -5.8060  -5.7951  -5.6281  -5.5086  -5.4773  -5.4242  -5.3512
    -5.2632  -5.1743  -5.0546  -5.0082  -4.8265  -4.7345  -4.6651  -4.6294
    -4.5457  -4.5428  -4.4168  -4.4114  -4.3180  -4.2880  -4.0592  -3.9124
    -3.8737  -3.8077  -3.8015  -3.7661  -3.7328  -3.7263  -3.5479  -3.4139
    -3.3211  -3.3111  -3.1732  -3.0626  -2.8353  -2.8108  -2.5591  -2.5214
    -1.4961  -1.4605  -0.7890  -0.7784  -0.7082  -0.7002   0.3522   0.6132
     1.3257   1.3275   1.4657   1.4690   2.0655   2.1004   2.1856   2.1864
[...]
     atom    4 type  1   force =     0.23394732    0.00000000    0.03796249
     atom    5 type  1   force =    -0.11697366    0.20260432    0.03796249
     atom    6 type  1   force =    -0.11697366   -0.20260432    0.03796249
     atom    7 type  2   force =     0.00000000    0.00000000    0.43884532
     atom    8 type  2   force =    -0.17321290    0.00000000    0.28085469
     atom    9 type  2   force =     0.08660645   -0.15000677    0.28085469
     atom   10 type  2   force =     0.08660645    0.15000677    0.28085469
     atom   11 type  2   force =     0.00000000    0.00000000   -0.35268494
     atom   12 type  2   force =     0.19979629   -0.00000000   -0.28471465
     atom   13 type  2   force =    -0.09989815    0.17302866   -0.28471465
     atom   14 type  2   force =    -0.09989815   -0.17302866   -0.28471465
     atom   15 type  2   force =    -0.19979629    0.00000000    0.28471465
     atom   16 type  2   force =     0.09989815   -0.17302866    0.28471465
     atom   17 type  2   force =     0.09989815    0.17302866    0.28471465
     atom   18 type  2   force =     0.00000000    0.00000000    0.35268494
     atom   19 type  2   force =     0.17321290    0.00000000   -0.28085469
     atom   20 type  2   force =    -0.08660645    0.15000677   -0.28085469
     atom   21 type  2   force =    -0.08660645   -0.15000677   -0.28085469
     atom   22 type  2   force =     0.00000000    0.00000000   -0.43884532
     The ionic contribution  to forces
     atom    1 type  1   force =     9.36046970   -0.00000000  -66.99893831
     atom    2 type  1   force =    -4.68023485    8.10640455  -66.99893831
     atom    3 type  1   force =    -4.68023485   -8.10640455  -66.99893831
     atom    4 type  1   force =    -9.36046970    0.00000000   66.99893831
     atom    5 type  1   force =     4.68023485   -8.10640455   66.99893831
     atom    6 type  1   force =     4.68023485    8.10640455   66.99893831
     atom    7 type  2   force =    -0.00000000    0.00000000  -71.04244333
     atom    8 type  2   force =     3.53908713   -0.00000000  -59.94467664
     atom    9 type  2   force =    -1.76954357    3.06493936  -59.94467664
     atom   10 type  2   force =    -1.76954357   -3.06493936  -59.94467664
     atom   11 type  2   force =     0.00000000   -0.00000000  -10.41721359
     atom   12 type  2   force =    -6.81243592   -0.00000000   -6.77526984
     atom   13 type  2   force =     3.40621796   -5.89974257   -6.77526984
     atom   14 type  2   force =     3.40621796    5.89974257   -6.77526984
     atom   15 type  2   force =     6.81243592    0.00000000    6.77526984
     atom   16 type  2   force =    -3.40621796    5.89974257    6.77526984
     atom   17 type  2   force =    -3.40621796   -5.89974257    6.77526984
     atom   18 type  2   force =    -0.00000000    0.00000000   10.41721359
     atom   19 type  2   force =    -3.53908713    0.00000000   59.94467664
     atom   20 type  2   force =     1.76954357   -3.06493936   59.94467664
     atom   21 type  2   force =     1.76954357    3.06493936   59.94467664
     atom   22 type  2   force =     0.00000000   -0.00000000   71.04244333
     The local contribution  to forces
     atom    1 type  1   force =    -9.12428547    0.00000000   67.03435130
     atom    2 type  1   force =     4.56214274   -7.90186301   67.03435130
     atom    3 type  1   force =     4.56214274    7.90186301   67.03435130
     atom    4 type  1   force =     9.12428547   -0.00000000  -67.03435130
     atom    5 type  1   force =    -4.56214274    7.90186301  -67.03435130
     atom    6 type  1   force =    -4.56214274   -7.90186301  -67.03435130
     atom    7 type  2   force =    -0.00000000    0.00000000   70.60238056
     atom    8 type  2   force =    -3.36642351   -0.00000000   59.66234040
     atom    9 type  2   force =     1.68321175   -2.91540828   59.66234040
     atom   10 type  2   force =     1.68321175    2.91540828   59.66234040
     atom   11 type  2   force =     0.00000000    0.00000000   10.76764711
     atom   12 type  2   force =     6.61358437    0.00000000    7.05931608
     atom   13 type  2   force =    -3.30679218    5.72753207    7.05931608
     atom   14 type  2   force =    -3.30679218   -5.72753207    7.05931608
     atom   15 type  2   force =    -6.61358437   -0.00000000   -7.05931608
     atom   16 type  2   force =     3.30679218   -5.72753207   -7.05931608
     atom   17 type  2   force =     3.30679218    5.72753207   -7.05931608
     atom   18 type  2   force =    -0.00000000   -0.00000000  -10.76764711
     atom   19 type  2   force =     3.36642351    0.00000000  -59.66234040
     atom   20 type  2   force =    -1.68321175    2.91540828  -59.66234040
     atom   21 type  2   force =    -1.68321175   -2.91540828  -59.66234040
     atom   22 type  2   force =     0.00000000   -0.00000000  -70.60238056
     The core correction contribution to forces
     atom    1 type  1   force =     0.00000000    0.00000000    0.00000000
     atom    2 type  1   force =     0.00000000    0.00000000    0.00000000
     atom    3 type  1   force =     0.00000000    0.00000000    0.00000000
     atom    4 type  1   force =     0.00000000    0.00000000    0.00000000
     atom    5 type  1   force =     0.00000000    0.00000000    0.00000000
     atom    6 type  1   force =     0.00000000    0.00000000    0.00000000
     atom    7 type  2   force =     0.00000000    0.00000000    0.00000000
     atom    8 type  2   force =     0.00000000    0.00000000    0.00000000
     atom    9 type  2   force =     0.00000000    0.00000000    0.00000000
     atom   10 type  2   force =     0.00000000    0.00000000    0.00000000
     atom   11 type  2   force =     0.00000000    0.00000000    0.00000000
     atom   12 type  2   force =     0.00000000    0.00000000    0.00000000
     atom   13 type  2   force =     0.00000000    0.00000000    0.00000000
     atom   14 type  2   force =     0.00000000    0.00000000    0.00000000
     atom   15 type  2   force =     0.00000000    0.00000000    0.00000000
     atom   16 type  2   force =     0.00000000    0.00000000    0.00000000
     atom   17 type  2   force =     0.00000000    0.00000000    0.00000000
     atom   18 type  2   force =     0.00000000    0.00000000    0.00000000
     atom   19 type  2   force =     0.00000000    0.00000000    0.00000000
     atom   20 type  2   force =     0.00000000    0.00000000    0.00000000
     atom   21 type  2   force =     0.00000000    0.00000000    0.00000000
     atom   22 type  2   force =     0.00000000    0.00000000    0.00000000
     The Hubbard contrib.    to forces
     atom    1 type  1   force =     0.00000000    0.00000000    0.00000000
     atom    2 type  1   force =     0.00000000    0.00000000    0.00000000
     atom    3 type  1   force =     0.00000000    0.00000000    0.00000000
     atom    4 type  1   force =     0.00000000    0.00000000    0.00000000
     atom    5 type  1   force =     0.00000000    0.00000000    0.00000000
     atom    6 type  1   force =     0.00000000    0.00000000    0.00000000
     atom    7 type  2   force =     0.00000000    0.00000000    0.00000000
     atom    8 type  2   force =     0.00000000    0.00000000    0.00000000
     atom    9 type  2   force =     0.00000000    0.00000000    0.00000000
     atom   10 type  2   force =     0.00000000    0.00000000    0.00000000
     atom   11 type  2   force =     0.00000000    0.00000000    0.00000000
     atom   12 type  2   force =     0.00000000    0.00000000    0.00000000
     atom   13 type  2   force =     0.00000000    0.00000000    0.00000000
     atom   14 type  2   force =     0.00000000    0.00000000    0.00000000
     atom   15 type  2   force =     0.00000000    0.00000000    0.00000000
     atom   16 type  2   force =     0.00000000    0.00000000    0.00000000
     atom   17 type  2   force =     0.00000000    0.00000000    0.00000000
     atom   18 type  2   force =     0.00000000    0.00000000    0.00000000
     atom   19 type  2   force =     0.00000000    0.00000000    0.00000000
     atom   20 type  2   force =     0.00000000    0.00000000    0.00000000
     atom   21 type  2   force =     0.00000000    0.00000000    0.00000000
     atom   22 type  2   force =     0.00000000    0.00000000    0.00000000
     The SCF correction term to forces
     atom    1 type  1   force =    -0.00000013   -0.00000000    0.00000107
     atom    2 type  1   force =     0.00000007   -0.00000011    0.00000107
     atom    3 type  1   force =     0.00000007    0.00000011    0.00000107
     atom    4 type  1   force =     0.00000013    0.00000000   -0.00000107
     atom    5 type  1   force =    -0.00000007    0.00000011   -0.00000107
     atom    6 type  1   force =    -0.00000007   -0.00000011   -0.00000107
     atom    7 type  2   force =    -0.00000000    0.00000000    0.00000057
     atom    8 type  2   force =    -0.00000003   -0.00000000    0.00000055
     atom    9 type  2   force =     0.00000001   -0.00000002    0.00000055
     atom   10 type  2   force =     0.00000001    0.00000002    0.00000055
     atom   11 type  2   force =     0.00000000    0.00000000    0.00000022
     atom   12 type  2   force =     0.00000017   -0.00000000    0.00000023
     atom   13 type  2   force =    -0.00000009    0.00000015    0.00000023
     atom   14 type  2   force =    -0.00000009   -0.00000015    0.00000023
     atom   15 type  2   force =    -0.00000017    0.00000000   -0.00000023
     atom   16 type  2   force =     0.00000009   -0.00000015   -0.00000023
     atom   17 type  2   force =     0.00000009    0.00000015   -0.00000023
     atom   18 type  2   force =    -0.00000000   -0.00000000   -0.00000022
     atom   19 type  2   force =     0.00000003    0.00000000   -0.00000055
     atom   20 type  2   force =    -0.00000001    0.00000002   -0.00000055
     atom   21 type  2   force =    -0.00000001   -0.00000002   -0.00000055
     atom   22 type  2   force =    -0.00000000   -0.00000000   -0.00000057

     DFT-D3 dispersion contribution to forces:
     atom    1 type  1   force =    -0.00223669   -0.00000000    0.00254911
     atom    2 type  1   force =     0.00111834   -0.00193703    0.00254911
     atom    3 type  1   force =     0.00111834    0.00193703    0.00254911
     atom    4 type  1   force =     0.00223669   -0.00000000   -0.00254911
     atom    5 type  1   force =    -0.00111834    0.00193703   -0.00254911
     atom    6 type  1   force =    -0.00111834   -0.00193703   -0.00254911
     atom    7 type  2   force =    -0.00000000    0.00000000    0.00121740
     atom    8 type  2   force =     0.00055011   -0.00000000    0.00148129
     atom    9 type  2   force =    -0.00027506    0.00047641    0.00148129
     atom   10 type  2   force =    -0.00027506   -0.00047641    0.00148129
     atom   11 type  2   force =     0.00000000   -0.00000000    0.00225100
     atom   12 type  2   force =    -0.00094466    0.00000000    0.00066867
     atom   13 type  2   force =     0.00047233   -0.00081810    0.00066867
     atom   14 type  2   force =     0.00047233    0.00081810    0.00066867
     atom   15 type  2   force =     0.00094466    0.00000000   -0.00066867
     atom   16 type  2   force =    -0.00047233    0.00081810   -0.00066867
     atom   17 type  2   force =    -0.00047233   -0.00081810   -0.00066867
     atom   18 type  2   force =    -0.00000000    0.00000000   -0.00225100
     atom   19 type  2   force =    -0.00055011    0.00000000   -0.00148129
     atom   20 type  2   force =     0.00027506   -0.00047641   -0.00148129
     atom   21 type  2   force =     0.00027506    0.00047641   -0.00148129
     atom   22 type  2   force =     0.00000000   -0.00000000   -0.00121740

     Total force =     0.000003     Total SCF correction =     0.000003

     DFT-D3 dispersion Force =     0.010253
     SCF correction compared to forces is large: reduce conv_thr to get better values


     Computing stress (Cartesian axis) and pressure

          total   stress  (Ry/bohr**3)                   (kbar)     P=        1.21
   0.00001271   0.00000000  -0.00000000            1.87        0.00       -0.00
  -0.00000000   0.00001271   0.00000000           -0.00        1.87        0.00
  -0.00000000   0.00000000  -0.00000084           -0.00        0.00       -0.12

     kinetic stress (kbar)   4688.74     -0.00      0.00
                               -0.00   4688.74      0.00
                                0.00      0.00   4646.94

     local   stress (kbar)-226228.75      0.00      0.00
                                0.00-226228.75      0.00
                                0.00      0.00 218310.76

     nonloc. stress (kbar)   4263.40     -0.00     -0.00
                               -0.00   4263.40      0.00
                               -0.00      0.00   4276.91

     hartree stress (kbar) 111434.86      0.00      0.00
                                0.00 111434.86     -0.00
                                0.00     -0.00-108507.66

     exc-cor stress (kbar)   -992.43     -0.00      0.00
                               -0.00   -992.43     -0.00
                                0.00     -0.00   -994.21

     corecor stress (kbar)      0.00      0.00      0.00
                                0.00      0.00      0.00
                                0.00      0.00      0.00

     ewald   stress (kbar) 106840.85     -0.00     -0.00
                               -0.00 106840.85      0.00
                               -0.00      0.00-117728.98

     hubbard stress (kbar)      0.00      0.00      0.00
                                0.00      0.00      0.00
                                0.00      0.00      0.00

     DFT-D   stress (kbar)     -4.79      0.00     -0.00
                                0.00     -4.79     -0.00
                               -0.00     -0.00     -3.89

     XDM     stress (kbar)      0.00      0.00      0.00
                                0.00      0.00      0.00
                                0.00      0.00      0.00

     dft-nl  stress (kbar)      0.00      0.00      0.00
                                0.00      0.00      0.00
                                0.00      0.00      0.00

     TS-vdW  stress (kbar)      0.00      0.00      0.00
                                0.00      0.00      0.00
                                0.00      0.00      0.00

     MDB     stress (kbar)      0.00      0.00      0.00
                                0.00      0.00      0.00
                                0.00      0.00      0.00

     3D-RISM stress (kbar)      0.00      0.00      0.00
                                0.00      0.00      0.00
                                0.00      0.00      0.00


     Damped Dynamics: convergence achieved in  33 steps

     End of damped dynamics calculation

     Final energy =   -1170.2191955617 Ry

Begin final coordinates
     new unit-cell volume =   8140.04187 a.u.^3 (  1206.22976 Ang^3 )
     density =      1.54828 g/cm^3

CELL_PARAMETERS (angstrom)
   5.833355223   3.367889208   0.000000000
  -5.833355223   3.367889208   0.000000000
   0.000000000   0.000000000  30.698971239

ATOMIC_POSITIONS (crystal)
Nb               0.1385203417       -0.1385203417       -0.1015446864
Nb               0.1385203417        0.2770406835       -0.1015446864
Nb              -0.2770406835       -0.1385203417       -0.1015446864
Nb              -0.1385203417        0.1385203417        0.1015446864
Nb              -0.1385203417       -0.2770406835        0.1015446864
Nb               0.2770406835        0.1385203417        0.1015446864
Cl               0.0000000000        0.0000000000       -0.1617118246
Cl              -0.4987912784        0.4987912784       -0.1461780446
Cl              -0.4987912784        0.0024174433       -0.1461780446
Cl              -0.0024174433        0.4987912784       -0.1461780446
Cl               0.3333333333       -0.3333333333       -0.0570331600
Cl              -0.1653188021        0.1653188021       -0.0480550945
Cl              -0.1653188021       -0.3306376043       -0.0480550945
Cl               0.3306376043        0.1653188021       -0.0480550945
Cl               0.1653188021       -0.1653188021        0.0480550945
Cl               0.1653188021        0.3306376043        0.0480550945
Cl              -0.3306376043       -0.1653188021        0.0480550945
Cl              -0.3333333333        0.3333333333        0.0570331600
Cl               0.4987912784       -0.4987912784        0.1461780446
Cl               0.4987912784       -0.0024174433        0.1461780446
Cl               0.0024174433       -0.4987912784        0.1461780446
Cl               0.0000000000        0.0000000000        0.1617118246
End final coordinates



     Writing all to output data dir ./out/Nb3Cl8.save/ :
     XML data file, charge density, pseudopotentials, collected wavefunctions

     init_run     :      1.01s CPU      1.17s WALL (       1 calls)
     electrons    :    602.24s CPU    691.26s WALL (      34 calls)
     update_pot   :     50.64s CPU    109.21s WALL (      33 calls)
     forces       :     13.30s CPU     14.77s WALL (      34 calls)
     force_dftd3  :      0.88s CPU      0.96s WALL (      34 calls)
     stress       :    112.51s CPU    116.32s WALL (      34 calls)
     stres_dftd3  :      0.60s CPU      0.63s WALL (      34 calls)

     Called by init_run:
     wfcinit      :      0.44s CPU      0.50s WALL (       1 calls)
     wfcinit:wfcr :      0.39s CPU      0.43s WALL (       1 calls)
     potinit      :      0.08s CPU      0.09s WALL (       1 calls)
     hinit0       :      0.13s CPU      0.17s WALL (       1 calls)

     Called by electrons:
     c_bands      :    512.21s CPU    546.00s WALL (     314 calls)
     sum_band     :     55.35s CPU     60.58s WALL (     314 calls)
     v_of_rho     :     20.64s CPU     22.42s WALL (     314 calls)
     v_h          :      1.73s CPU      1.90s WALL (     314 calls)
     v_xc         :     18.91s CPU     20.52s WALL (     314 calls)
     mix_rho      :      5.65s CPU      6.24s WALL (     314 calls)
     energy_dftd3 :      0.39s CPU      0.39s WALL (      34 calls)

     Called by c_bands:
     init_us_2    :     15.57s CPU     16.06s WALL (     629 calls)
     cegterg      :    446.78s CPU    479.11s WALL (     315 calls)

     Called by sum_band:
     sum_band:wei :      1.59s CPU      1.61s WALL (     314 calls)
     sum_band:loo :     48.48s CPU     52.75s WALL (     314 calls)
     sum_band:buf :      0.00s CPU      0.00s WALL (     314 calls)
     sum_band:ini :      8.20s CPU      8.45s WALL (     314 calls)

     Called by *egterg:
     cdiaghg      :     26.03s CPU     26.35s WALL (    1654 calls)
     cegterg:over :     43.21s CPU     43.88s WALL (    1407 calls)
     cegterg:upda :     29.47s CPU     31.23s WALL (    1407 calls)
     cegterg:last :     37.97s CPU     38.61s WALL (     661 calls)
     h_psi        :    283.81s CPU    311.03s WALL (    1723 calls)
     g_psi        :      1.53s CPU      1.57s WALL (    1407 calls)

     Called by h_psi:
     h_psi:calbec :     38.37s CPU     39.05s WALL (    1723 calls)
     vloc_psi     :    204.69s CPU    227.90s WALL (    1723 calls)
     add_vuspsi   :     35.76s CPU     36.35s WALL (    1723 calls)

     General routines
     calbec       :     57.44s CPU     58.40s WALL (    1925 calls)
     fft          :      7.05s CPU      8.66s WALL (    3445 calls)
     ffts         :      1.39s CPU      1.57s WALL (     314 calls)
     fftw         :    226.45s CPU    252.26s WALL (  229530 calls)
     davcio       :      0.02s CPU      8.12s WALL (     128 calls)

     Parallel routines

     PWSCF        :    830.83s CPU   1013.51s WALL


   This run was terminated on:  12:40:11   7May2025            

=------------------------------------------------------------------------------=
   JOB DONE.
=------------------------------------------------------------------------------=
