
     Program PWSCF v.7.3.1 starts on  7May2025 at 23:16:28 

     This program is part of the open-source Quantum ESPRESSO suite
     for quantum simulation of materials; please cite
         "P. Giannozzi et al., J. Phys.:Condens. Matter 21 395502 (2009);
         "P. Giannozzi et al., J. Phys.:Condens. Matter 29 465901 (2017);
         "P. Giannozzi et al., J. Chem. Phys. 152 154105 (2020);
          URL http://www.quantum-espresso.org", 
     in publications or presentations arising from this work. More details at
     http://www.quantum-espresso.org/quote

     Parallel version (MPI & OpenMP), running on     384 processor cores
     Number of MPI processes:               384
     Threads/MPI process:                     1

     MPI processes distributed on     2 nodes
     333232 MiB available memory on the printing compute node when the environment starts

     Waiting for input...
     Reading input from standard input
Warning: card &CELL ignored
Warning: card / ignored
Warning: card &FCP ignored
Warning: card / ignored
Warning: card &RISM ignored
Warning: card / ignored

     Current dimensions of program PWSCF are:
     Max number of different atomic species (ntypx) = 10
     Max number of k-points (npk) =  40000
     Max angular momentum in pseudopotentials (lmaxx) =  4

     IMPORTANT: XC functional enforced from input :
     Exchange-correlation= PBE
                           (   1   4   3   4   0   0   0)
     Any further DFT definition will be discarded
     Please, verify this is what you really want

     Message from routine setup:
     using ibrav=0 with symmetry is DISCOURAGED, use correct ibrav instead
     Message from routine setup:
     Dynamics, you should have no symmetries

     K-points division:     npool     =      16
     R & G space division:  proc/nbgrp/npool/nimage =      24
     Subspace diagonalization in iterative solution of the eigenvalue problem:
     a serial algorithm will be used

     Message from routine divide_et_impera:
     suboptimal parallelization: some nodes have no k-points

     Parallelization info
     --------------------
     sticks:   dense  smooth     PW     G-vecs:    dense   smooth      PW
     Min         186     186     49                45833    45833    6301
     Max         188     188     50                45845    45845    6314
     Sum        4483    4483   1189              1100103  1100103  151427

     Using Slab Decomposition



     bravais-lattice index     =            0
     lattice parameter (alat)  =      12.7288  a.u.
     unit-cell volume          =    8140.0419 (a.u.)^3
     number of atoms/cell      =           11
     number of atomic types    =            2
     number of electrons       =        95.00
     number of Kohn-Sham states=           58
     kinetic-energy cutoff     =     100.0000  Ry
     charge density cutoff     =     400.0000  Ry
     scf convergence threshold =      1.0E-12
     mixing beta               =       0.7000
     number of iterations used =            8  plain     mixing
     energy convergence thresh.=      1.0E-04
     force convergence thresh. =      1.0E-06
     Exchange-correlation= PBE
                           (   1   4   3   4   0   0   0)
     nstep                     =           50


     celldm(1)=  12.728776  celldm(2)=   0.000000  celldm(3)=   0.000000
     celldm(4)=   0.000000  celldm(5)=   0.000000  celldm(6)=   0.000000

     crystal axes: (cart. coord. in units of alat)
               a(1) = (   0.866025   0.500000   0.000000 )  
               a(2) = (  -0.866025   0.500000   0.000000 )  
               a(3) = (   0.000000   0.000000   4.557598 )  

     reciprocal axes: (cart. coord. in units 2 pi/alat)
               b(1) = (  0.577350  1.000000 -0.000000 )  
               b(2) = ( -0.577350  1.000000  0.000000 )  
               b(3) = (  0.000000 -0.000000  0.219414 )  


     PseudoPot. # 1 for Nb read from file:
     /scratch-shared/mroesner/Nb3X8_cDFPT/pp/Nb_ONCV_PBE-1.2.upf
     MD5 check sum: 2c750ac0b6910ff4cf0ab5f6c4124a64
     Pseudo is Norm-conserving, Zval = 13.0
     Generated using ONCVPSP code by D. R. Hamann
     Using radial grid of  602 points,  6 beta functions with: 
                l(1) =   0
                l(2) =   0
                l(3) =   1
                l(4) =   1
                l(5) =   2
                l(6) =   2

     PseudoPot. # 2 for Cl read from file:
     /scratch-shared/mroesner/Nb3X8_cDFPT/pp/Cl_ONCV_PBE-1.2.upf
     MD5 check sum: 0f993535b366f580ecbcdacce103c843
     Pseudo is Norm-conserving, Zval =  7.0
     Generated using ONCVPSP code by D. R. Hamann
     Using radial grid of  602 points,  4 beta functions with: 
                l(1) =   0
                l(2) =   0
                l(3) =   1
                l(4) =   1

     atomic species   valence    mass     pseudopotential
     Nb               13.00    92.90637     Nb( 1.00)
     Cl                7.00    35.45270     Cl( 1.00)

      6 Sym. Ops. (no inversion) found


                                    s                        frac. trans.

      isym =  1     identity                                     

 cryst.   s( 1) = (     1          0          0      )
                  (     0          1          0      )
                  (     0          0          1      )

 cart.    s( 1) = (  1.0000000 -0.0000000  0.0000000 )
                  ( -0.0000000  1.0000000  0.0000000 )
                  (  0.0000000  0.0000000  1.0000000 )


      isym =  2     120 deg rotation - cryst. axis [0,0,1]       

 cryst.   s( 2) = (     0          1          0      )
                  (    -1         -1          0      )
                  (     0          0          1      )

 cart.    s( 2) = ( -0.5000000 -0.8660254  0.0000000 )
                  (  0.8660254 -0.5000000  0.0000000 )
                  (  0.0000000  0.0000000  1.0000000 )


      isym =  3     120 deg rotation - cryst. axis [0,0,-1]      

 cryst.   s( 3) = (    -1         -1          0      )
                  (     1          0          0      )
                  (     0          0          1      )

 cart.    s( 3) = ( -0.5000000  0.8660254  0.0000000 )
                  ( -0.8660254 -0.5000000  0.0000000 )
                  (  0.0000000  0.0000000  1.0000000 )


      isym =  4     inv. 180 deg rotation - cart. axis [0,1,0]   

 cryst.   s( 4) = (     0         -1          0      )
                  (    -1          0          0      )
                  (     0          0          1      )

 cart.    s( 4) = (  1.0000000  0.0000000  0.0000000 )
                  ( -0.0000000 -1.0000000  0.0000000 )
                  (  0.0000000  0.0000000  1.0000000 )


      isym =  5     inv. 180 deg rotation - cryst. axis [1,-1,0] 

 cryst.   s( 5) = (     1          1          0      )
                  (     0         -1          0      )
                  (     0          0          1      )

 cart.    s( 5) = ( -0.5000000  0.8660254  0.0000000 )
                  (  0.8660254  0.5000000  0.0000000 )
                  (  0.0000000  0.0000000  1.0000000 )


      isym =  6     inv. 180 deg rotation - cryst. axis [2,1,0]  

 cryst.   s( 6) = (    -1          0          0      )
                  (     1          1          0      )
                  (     0          0          1      )

 cart.    s( 6) = ( -0.5000000 -0.8660254  0.0000000 )
                  ( -0.8660254  0.5000000  0.0000000 )
                  (  0.0000000  0.0000000  1.0000000 )


   Cartesian axes

     site n.     atom                  positions (alat units)
         1        Nb     tau(   1) = (  -0.2399243   0.0000000   0.4627999  )
         2        Nb     tau(   2) = (   0.1199621  -0.2077805   0.4627999  )
         3        Nb     tau(   3) = (   0.1199621   0.2077805   0.4627999  )
         4        Cl     tau(   4) = (   0.2863406  -0.0000000   0.2190158  )
         5        Cl     tau(   5) = (  -0.1431703   0.2479782   0.2190158  )
         6        Cl     tau(   6) = (  -0.1431703  -0.2479782   0.2190158  )
         7        Cl     tau(   7) = (  -0.5773503   0.0000000   0.2599342  )
         8        Cl     tau(   8) = (   0.8639318  -0.0000000   0.6662208  )
         9        Cl     tau(   9) = (   0.4340595   0.2481869   0.6662208  )
        10        Cl     tau(  10) = (   0.4340595  -0.2481869   0.6662208  )
        11        Cl     tau(  11) = (   0.0000000   0.0000000   0.7370175  )

     --------------------------------------------
     DFT-D3 Dispersion Correction (no 3-body):
     --------------------------------------------
       Reference C6 values for interpolation: 

         atom   Coordination number   C6
         Cl         0.000           184.69
         Cl         0.997           180.80
         Nb         0.000          2950.50
         Nb         1.954          1161.16
         Nb         2.922           857.79

       Values used:

         atom   Coordination number  R0_AB[au]  C6      C8
         Nb         8.240            3.647    857.79 111659.18
         Nb         8.240            3.647    857.79 111659.18
         Nb         8.240            3.647    857.79 111659.18
         Cl         2.246            2.933    180.80   7543.50
         Cl         2.246            2.933    180.80   7543.50
         Cl         2.246            2.933    180.80   7543.50
         Cl         3.074            2.933    180.80   7543.49
         Cl         2.247            2.933    180.80   7543.50
         Cl         2.247            2.933    180.80   7543.50
         Cl         2.247            2.933    180.80   7543.50
         Cl         3.135            2.933    180.80   7543.49

         Molecular C6 ( Ry / a.u.^6 ) =     37724.98


   Crystallographic axes

     site n.     atom                  positions (cryst. coord.)
         1        Nb     tau(   1) = ( -0.1385203  0.1385203  0.1015447  )
         2        Nb     tau(   2) = ( -0.1385203 -0.2770407  0.1015447  )
         3        Nb     tau(   3) = (  0.2770407  0.1385203  0.1015447  )
         4        Cl     tau(   4) = (  0.1653188 -0.1653188  0.0480551  )
         5        Cl     tau(   5) = (  0.1653188  0.3306376  0.0480551  )
         6        Cl     tau(   6) = ( -0.3306376 -0.1653188  0.0480551  )
         7        Cl     tau(   7) = ( -0.3333333  0.3333333  0.0570332  )
         8        Cl     tau(   8) = (  0.4987913 -0.4987913  0.1461780  )
         9        Cl     tau(   9) = (  0.4987913 -0.0024174  0.1461780  )
        10        Cl     tau(  10) = (  0.0024174 -0.4987913  0.1461780  )
        11        Cl     tau(  11) = (  0.0000000  0.0000000  0.1617118  )

     number of k points=     7  Marzari-Vanderbilt smearing, width (Ry)=  0.0037
                       cart. coord. in units 2pi/alat
        k(    1) = (   0.0000000   0.0000000   0.0000000), wk =   0.0555556
        k(    2) = (  -0.0962250   0.1666667   0.0000000), wk =   0.3333333
        k(    3) = (  -0.1924501   0.3333333   0.0000000), wk =   0.3333333
        k(    4) = (   0.2886751  -0.5000000   0.0000000), wk =   0.1666667
        k(    5) = (  -0.0000000   0.3333333   0.0000000), wk =   0.3333333
        k(    6) = (  -0.0962250   0.5000000   0.0000000), wk =   0.6666667
        k(    7) = (  -0.0000000   0.6666667   0.0000000), wk =   0.1111111

                       cryst. coord.
        k(    1) = (   0.0000000   0.0000000   0.0000000), wk =   0.0555556
        k(    2) = (   0.0000000   0.1666667   0.0000000), wk =   0.3333333
        k(    3) = (   0.0000000   0.3333333   0.0000000), wk =   0.3333333
        k(    4) = (   0.0000000  -0.5000000   0.0000000), wk =   0.1666667
        k(    5) = (   0.1666667   0.1666667   0.0000000), wk =   0.3333333
        k(    6) = (   0.1666667   0.3333333   0.0000000), wk =   0.6666667
        k(    7) = (   0.3333333   0.3333333   0.0000000), wk =   0.1111111

     Dense  grid:  1100103 G-vectors     FFT dimensions: (  81,  81, 375)

     Dynamical RAM for                 wfc:       5.07 MB

     Dynamical RAM for     wfc (w. buffer):       5.07 MB

     Dynamical RAM for           str. fact:       1.40 MB

     Dynamical RAM for           local pot:       0.00 MB

     Dynamical RAM for          nlocal pot:      10.31 MB

     Dynamical RAM for                qrad:       3.21 MB

     Dynamical RAM for          rho,v,vnew:       4.50 MB

     Dynamical RAM for               rhoin:       1.50 MB

     Dynamical RAM for            rho*nmix:      11.19 MB

     Dynamical RAM for           G-vectors:       2.97 MB

     Dynamical RAM for          h,s,v(r/c):       0.62 MB

     Dynamical RAM for          <psi|beta>:       0.10 MB

     Dynamical RAM for                 psi:      10.14 MB

     Dynamical RAM for                hpsi:      10.14 MB

     Dynamical RAM for      wfcinit/wfcrot:      10.21 MB

     Estimated static dynamical RAM per process >      35.07 MB

     Estimated max dynamical RAM per process >      67.25 MB

     Estimated total dynamical RAM >      21.29 GB

     Initial potential from superposition of free atoms

     starting charge      94.6161, renormalised to      95.0000

     negative rho (up, down):  1.461E-03 0.000E+00
     Starting wfcs are random

     total cpu time spent up to now is        1.8 secs

     per-process dynamical memory:   184.7 Mb

     Self-consistent Calculation

     iteration #  1     ecut=   100.00 Ry     beta= 0.70
     Davidson diagonalization with overlap

---- Real-time Memory Report at c_bands before calling an iterative solver
           211 MiB given to the printing process from OS
           180 MiB allocation reported by mallinfo(arena+hblkhd)
        321892 MiB available memory on the node where the printing process lives
------------------
     ethr =  1.00E-02,  avg # of iterations = 17.9

     Threshold (ethr) on eigenvalues was too large:
     Diagonalizing with lowered threshold

     Davidson diagonalization with overlap

---- Real-time Memory Report at c_bands before calling an iterative solver
           227 MiB given to the printing process from OS
           180 MiB allocation reported by mallinfo(arena+hblkhd)
        320144 MiB available memory on the node where the printing process lives
------------------
     ethr =  3.45E-04,  avg # of iterations =  8.7

     negative rho (up, down):  2.815E-04 0.000E+00

     total cpu time spent up to now is        5.6 secs

     total energy              =    -584.97801275 Ry
     estimated scf accuracy    <       0.31543456 Ry

     iteration #  2     ecut=   100.00 Ry     beta= 0.70
     Davidson diagonalization with overlap

---- Real-time Memory Report at c_bands before calling an iterative solver
           227 MiB given to the printing process from OS
           182 MiB allocation reported by mallinfo(arena+hblkhd)
        321374 MiB available memory on the node where the printing process lives
------------------
     ethr =  3.32E-04,  avg # of iterations =  3.0

     negative rho (up, down):  1.382E-04 0.000E+00

     total cpu time spent up to now is        6.5 secs

     total energy              =    -585.05008821 Ry
     estimated scf accuracy    <       0.12538000 Ry

     iteration #  3     ecut=   100.00 Ry     beta= 0.70
     Davidson diagonalization with overlap

---- Real-time Memory Report at c_bands before calling an iterative solver
           240 MiB given to the printing process from OS
           184 MiB allocation reported by mallinfo(arena+hblkhd)
        321369 MiB available memory on the node where the printing process lives
------------------
     ethr =  1.32E-04,  avg # of iterations =  2.9

     negative rho (up, down):  7.914E-05 0.000E+00

     total cpu time spent up to now is        7.4 secs

     total energy              =    -585.07229851 Ry
     estimated scf accuracy    <       0.03384041 Ry

     iteration #  4     ecut=   100.00 Ry     beta= 0.70
     Davidson diagonalization with overlap

---- Real-time Memory Report at c_bands before calling an iterative solver
           242 MiB given to the printing process from OS
           185 MiB allocation reported by mallinfo(arena+hblkhd)
        321305 MiB available memory on the node where the printing process lives
------------------
     ethr =  3.56E-05,  avg # of iterations =  5.7

     negative rho (up, down):  2.281E-05 0.000E+00

     total cpu time spent up to now is        8.4 secs

     total energy              =    -585.08017850 Ry
     estimated scf accuracy    <       0.00944331 Ry

     iteration #  5     ecut=   100.00 Ry     beta= 0.70
     Davidson diagonalization with overlap

---- Real-time Memory Report at c_bands before calling an iterative solver
           243 MiB given to the printing process from OS
           186 MiB allocation reported by mallinfo(arena+hblkhd)
        321313 MiB available memory on the node where the printing process lives
------------------
     ethr =  9.94E-06,  avg # of iterations =  4.3

     negative rho (up, down):  5.258E-06 0.000E+00

     total cpu time spent up to now is        9.5 secs

     total energy              =    -585.08169819 Ry
     estimated scf accuracy    <       0.00191262 Ry

     iteration #  6     ecut=   100.00 Ry     beta= 0.70
     Davidson diagonalization with overlap

---- Real-time Memory Report at c_bands before calling an iterative solver
           245 MiB given to the printing process from OS
           188 MiB allocation reported by mallinfo(arena+hblkhd)
        321237 MiB available memory on the node where the printing process lives
------------------
     ethr =  2.01E-06,  avg # of iterations =  7.1

     negative rho (up, down):  1.030E-06 0.000E+00

     total cpu time spent up to now is       10.6 secs

     total energy              =    -585.08209056 Ry
     estimated scf accuracy    <       0.00045923 Ry

     iteration #  7     ecut=   100.00 Ry     beta= 0.70
     Davidson diagonalization with overlap

---- Real-time Memory Report at c_bands before calling an iterative solver
           249 MiB given to the printing process from OS
           189 MiB allocation reported by mallinfo(arena+hblkhd)
        321227 MiB available memory on the node where the printing process lives
------------------
     ethr =  4.83E-07,  avg # of iterations =  3.7

     negative rho (up, down):  5.472E-08 0.000E+00

     total cpu time spent up to now is       11.6 secs

     total energy              =    -585.08217633 Ry
     estimated scf accuracy    <       0.00001114 Ry

     iteration #  8     ecut=   100.00 Ry     beta= 0.70
     Davidson diagonalization with overlap

---- Real-time Memory Report at c_bands before calling an iterative solver
           250 MiB given to the printing process from OS
           191 MiB allocation reported by mallinfo(arena+hblkhd)
        321187 MiB available memory on the node where the printing process lives
------------------
     ethr =  1.17E-08,  avg # of iterations =  9.1

     total cpu time spent up to now is       12.8 secs

     total energy              =    -585.08218051 Ry
     estimated scf accuracy    <       0.00000234 Ry

     iteration #  9     ecut=   100.00 Ry     beta= 0.70
     Davidson diagonalization with overlap

---- Real-time Memory Report at c_bands before calling an iterative solver
           251 MiB given to the printing process from OS
           192 MiB allocation reported by mallinfo(arena+hblkhd)
        321185 MiB available memory on the node where the printing process lives
------------------
     ethr =  2.46E-09,  avg # of iterations =  3.4

     negative rho (up, down):  1.962E-08 0.000E+00

     total cpu time spent up to now is       13.8 secs

     total energy              =    -585.08218097 Ry
     estimated scf accuracy    <       0.00000032 Ry

     iteration # 10     ecut=   100.00 Ry     beta= 0.70
     Davidson diagonalization with overlap

---- Real-time Memory Report at c_bands before calling an iterative solver
           254 MiB given to the printing process from OS
           193 MiB allocation reported by mallinfo(arena+hblkhd)
        321110 MiB available memory on the node where the printing process lives
------------------
     ethr =  3.36E-10,  avg # of iterations =  6.1

     total cpu time spent up to now is       14.9 secs

     total energy              =    -585.08218103 Ry
     estimated scf accuracy    <       0.00000002 Ry

     iteration # 11     ecut=   100.00 Ry     beta= 0.70
     Davidson diagonalization with overlap

---- Real-time Memory Report at c_bands before calling an iterative solver
           256 MiB given to the printing process from OS
           193 MiB allocation reported by mallinfo(arena+hblkhd)
        321117 MiB available memory on the node where the printing process lives
------------------
     ethr =  1.62E-11,  avg # of iterations =  6.4

     total cpu time spent up to now is       16.2 secs

     total energy              =    -585.08218103 Ry
     estimated scf accuracy    <          4.2E-09 Ry

     iteration # 12     ecut=   100.00 Ry     beta= 0.70
     Davidson diagonalization with overlap

---- Real-time Memory Report at c_bands before calling an iterative solver
           256 MiB given to the printing process from OS
           193 MiB allocation reported by mallinfo(arena+hblkhd)
        321095 MiB available memory on the node where the printing process lives
------------------
     ethr =  4.38E-12,  avg # of iterations =  2.9

     total cpu time spent up to now is       17.1 secs

     total energy              =    -585.08218103 Ry
     estimated scf accuracy    <          5.6E-10 Ry

     iteration # 13     ecut=   100.00 Ry     beta= 0.70
     Davidson diagonalization with overlap

---- Real-time Memory Report at c_bands before calling an iterative solver
           256 MiB given to the printing process from OS
           193 MiB allocation reported by mallinfo(arena+hblkhd)
        321117 MiB available memory on the node where the printing process lives
------------------
     ethr =  5.86E-13,  avg # of iterations =  6.6

     total cpu time spent up to now is       18.1 secs

     total energy              =    -585.08218103 Ry
     estimated scf accuracy    <          1.9E-11 Ry

     iteration # 14     ecut=   100.00 Ry     beta= 0.70
     Davidson diagonalization with overlap

---- Real-time Memory Report at c_bands before calling an iterative solver
           256 MiB given to the printing process from OS
           193 MiB allocation reported by mallinfo(arena+hblkhd)
        321104 MiB available memory on the node where the printing process lives
------------------
     ethr =  1.00E-13,  avg # of iterations =  4.3

     total cpu time spent up to now is       19.1 secs

     total energy              =    -585.08218103 Ry
     estimated scf accuracy    <          8.0E-12 Ry

     iteration # 15     ecut=   100.00 Ry     beta= 0.70
     Davidson diagonalization with overlap

---- Real-time Memory Report at c_bands before calling an iterative solver
           257 MiB given to the printing process from OS
           193 MiB allocation reported by mallinfo(arena+hblkhd)
        321124 MiB available memory on the node where the printing process lives
------------------
     ethr =  1.00E-13,  avg # of iterations =  1.0

     total cpu time spent up to now is       19.8 secs

     total energy              =    -585.08218103 Ry
     estimated scf accuracy    <          3.8E-12 Ry

     iteration # 16     ecut=   100.00 Ry     beta= 0.70
     Davidson diagonalization with overlap

---- Real-time Memory Report at c_bands before calling an iterative solver
           257 MiB given to the printing process from OS
           193 MiB allocation reported by mallinfo(arena+hblkhd)
        321101 MiB available memory on the node where the printing process lives
------------------
     ethr =  1.00E-13,  avg # of iterations =  1.0

     total cpu time spent up to now is       20.4 secs

     End of self-consistent calculation

          k = 0.0000 0.0000 0.0000 (137531 PWs)   bands (ev):

   -58.0964 -57.9930 -57.9930 -34.5688 -34.3303 -34.3303 -34.3106 -34.1718
   -34.1718 -33.9240 -33.7656 -33.7656 -19.6591 -19.0837 -18.5846 -18.4679
   -18.4679 -18.2801 -17.9306 -17.9306  -9.2038  -9.2038  -8.8503  -8.6799
    -8.2311  -8.2311  -8.0943  -7.9117  -7.6475  -7.6475  -7.1803  -6.9962
    -6.9962  -6.5887  -6.4837  -6.4837  -6.2132  -6.2132  -6.1371  -6.0404
    -5.4795  -5.4795  -4.9085  -4.9085  -3.8624  -3.3004  -3.3004  -1.9709
    -1.1674  -1.1674  -0.1846  -0.1846  -0.1627   0.2314   0.2314   0.2491
     0.5877   0.5877

     occupation numbers 
     1.0000   1.0000   1.0000   1.0000   1.0000   1.0000   1.0000   1.0000
     1.0000   1.0000   1.0000   1.0000   1.0000   1.0000   1.0000   1.0000
     1.0000   1.0000   1.0000   1.0000   1.0000   1.0000   1.0000   1.0000
     1.0000   1.0000   1.0000   1.0000   1.0000   1.0000   1.0000   1.0000
     1.0000   1.0000   1.0000   1.0000   1.0000   1.0000   1.0000   1.0000
     1.0000   1.0000   1.0000   1.0000   1.0000   1.0000   1.0000   0.0001
     0.0000   0.0000   0.0000   0.0000   0.0000   0.0000   0.0000   0.0000
     0.0000   0.0000

          k =-0.0962 0.1667 0.0000 (137449 PWs)   bands (ev):

   -58.0961 -57.9933 -57.9930 -34.5625 -34.3291 -34.3255 -34.3089 -34.1737
   -34.1720 -33.9273 -33.7742 -33.7674 -19.6369 -19.0601 -18.6012 -18.4898
   -18.4634 -18.2706 -17.9602 -17.9356  -9.1152  -9.1043  -8.7762  -8.6238
    -8.2541  -8.2329  -7.9960  -7.8641  -7.6482  -7.6364  -7.1399  -7.1081
    -6.9870  -6.7449  -6.5816  -6.4188  -6.3023  -6.2572  -6.1444  -6.0060
    -5.6214  -5.4923  -5.1196  -4.9424  -3.9204  -3.2900  -3.2674  -2.0036
    -1.1516  -1.1338  -0.2874  -0.2297  -0.2005   0.0383   0.1539   0.2459
     0.6008   0.7302

     occupation numbers 
     1.0000   1.0000   1.0000   1.0000   1.0000   1.0000   1.0000   1.0000
     1.0000   1.0000   1.0000   1.0000   1.0000   1.0000   1.0000   1.0000
     1.0000   1.0000   1.0000   1.0000   1.0000   1.0000   1.0000   1.0000
     1.0000   1.0000   1.0000   1.0000   1.0000   1.0000   1.0000   1.0000
     1.0000   1.0000   1.0000   1.0000   1.0000   1.0000   1.0000   1.0000
     1.0000   1.0000   1.0000   1.0000   1.0000   1.0000   1.0000   0.0024
     0.0000   0.0000   0.0000   0.0000   0.0000   0.0000   0.0000   0.0000
     0.0000   0.0000

          k =-0.1925 0.3333 0.0000 (137535 PWs)   bands (ev):

   -58.0955 -57.9939 -57.9930 -34.5497 -34.3264 -34.3157 -34.3055 -34.1775
   -34.1724 -33.9343 -33.7920 -33.7707 -19.5919 -18.9890 -18.6728 -18.5201
   -18.4542 -18.2496 -18.0205 -17.9456  -8.9195  -8.9044  -8.7126  -8.3347
    -8.2369  -8.0744  -7.9190  -7.7993  -7.7190  -7.6361  -7.2567  -7.1219
    -6.9996  -6.9455  -6.7807  -6.5223  -6.4313  -6.3643  -6.0728  -6.0726
    -5.8142  -5.5504  -5.4953  -5.0025  -4.0218  -3.2831  -3.2043  -2.0940
    -1.1231  -1.0586  -0.4765  -0.3578  -0.3173  -0.0898   0.1763   0.1942
     0.5161   0.7337

     occupation numbers 
     1.0000   1.0000   1.0000   1.0000   1.0000   1.0000   1.0000   1.0000
     1.0000   1.0000   1.0000   1.0000   1.0000   1.0000   1.0000   1.0000
     1.0000   1.0000   1.0000   1.0000   1.0000   1.0000   1.0000   1.0000
     1.0000   1.0000   1.0000   1.0000   1.0000   1.0000   1.0000   1.0000
     1.0000   1.0000   1.0000   1.0000   1.0000   1.0000   1.0000   1.0000
     1.0000   1.0000   1.0000   1.0000   1.0000   1.0000   1.0000   0.5459
     0.0000   0.0000   0.0000   0.0000   0.0000   0.0000   0.0000   0.0000
     0.0000   0.0000

          k = 0.2887-0.5000 0.0000 (137556 PWs)   bands (ev):

   -58.0952 -57.9943 -57.9930 -34.5432 -34.3248 -34.3105 -34.3037 -34.1795
   -34.1727 -33.9381 -33.8011 -33.7722 -19.5694 -18.9191 -18.7503 -18.5288
   -18.4495 -18.2365 -18.0523 -17.9508  -8.8822  -8.8195  -8.4318  -8.3453
    -8.1192  -8.0360  -7.8614  -7.8355  -7.7445  -7.4250  -7.3929  -7.2074
    -7.1976  -6.9264  -6.7693  -6.7659  -6.5224  -6.4363  -6.0541  -6.0208
    -5.8358  -5.6943  -5.5994  -5.0273  -4.0665  -3.2867  -3.1736  -2.1488
    -1.1068  -1.0154  -0.5698  -0.4286  -0.3536  -0.1283   0.1807   0.1853
     0.4678   0.7094

     occupation numbers 
     1.0000   1.0000   1.0000   1.0000   1.0000   1.0000   1.0000   1.0000
     1.0000   1.0000   1.0000   1.0000   1.0000   1.0000   1.0000   1.0000
     1.0000   1.0000   1.0000   1.0000   1.0000   1.0000   1.0000   1.0000
     1.0000   1.0000   1.0000   1.0000   1.0000   1.0000   1.0000   1.0000
     1.0000   1.0000   1.0000   1.0000   1.0000   1.0000   1.0000   1.0000
     1.0000   1.0000   1.0000   1.0000   1.0000   1.0000   1.0000   1.0795
     0.0000   0.0000   0.0000   0.0000   0.0000   0.0000   0.0000   0.0000
     0.0000   0.0000

          k =-0.0000 0.3333 0.0000 (137410 PWs)   bands (ev):

   -58.0956 -57.9938 -57.9930 -34.5528 -34.3266 -34.3189 -34.3064 -34.1762
   -34.1726 -33.9324 -33.7863 -33.7710 -19.6033 -19.0122 -18.6375 -18.5346
   -18.4465 -18.2537 -18.0134 -17.9363  -8.9695  -8.9501  -8.7262  -8.4387
    -8.2743  -8.1026  -7.9478  -7.7752  -7.6837  -7.6395  -7.2251  -7.1314
    -7.0072  -6.8930  -6.7762  -6.4504  -6.3276  -6.2888  -6.2117  -5.9666
    -5.8164  -5.6031  -5.3219  -5.0340  -3.9894  -3.2886  -3.2147  -2.0576
    -1.1756  -1.0398  -0.4217  -0.3313  -0.2321  -0.0873   0.0837   0.2082
     0.5775   0.8291

     occupation numbers 
     1.0000   1.0000   1.0000   1.0000   1.0000   1.0000   1.0000   1.0000
     1.0000   1.0000   1.0000   1.0000   1.0000   1.0000   1.0000   1.0000
     1.0000   1.0000   1.0000   1.0000   1.0000   1.0000   1.0000   1.0000
     1.0000   1.0000   1.0000   1.0000   1.0000   1.0000   1.0000   1.0000
     1.0000   1.0000   1.0000   1.0000   1.0000   1.0000   1.0000   1.0000
     1.0000   1.0000   1.0000   1.0000   1.0000   1.0000   1.0000   0.1271
     0.0000   0.0000   0.0000   0.0000   0.0000   0.0000   0.0000   0.0000
     0.0000   0.0000

          k =-0.0962 0.5000 0.0000 (137449 PWs)   bands (ev):

   -58.0952 -57.9943 -57.9930 -34.5429 -34.3230 -34.3130 -34.3037 -34.1786
   -34.1734 -33.9376 -33.7983 -33.7751 -19.5697 -18.9291 -18.7113 -18.5786
   -18.4290 -18.2276 -18.0765 -17.9349  -8.9022  -8.7499  -8.5254  -8.3039
    -8.2191  -7.9604  -7.8666  -7.7536  -7.7066  -7.5638  -7.4062  -7.2143
    -7.1164  -6.9594  -6.8307  -6.6944  -6.5177  -6.2765  -6.1398  -6.0952
    -5.8577  -5.6790  -5.5253  -5.1228  -4.0388  -3.2869  -3.1800  -2.1111
    -1.1893  -0.9523  -0.5166  -0.3941  -0.3163  -0.1873   0.0017   0.2285
     0.5601   0.7796

     occupation numbers 
     1.0000   1.0000   1.0000   1.0000   1.0000   1.0000   1.0000   1.0000
     1.0000   1.0000   1.0000   1.0000   1.0000   1.0000   1.0000   1.0000
     1.0000   1.0000   1.0000   1.0000   1.0000   1.0000   1.0000   1.0000
     1.0000   1.0000   1.0000   1.0000   1.0000   1.0000   1.0000   1.0000
     1.0000   1.0000   1.0000   1.0000   1.0000   1.0000   1.0000   1.0000
     1.0000   1.0000   1.0000   1.0000   1.0000   1.0000   1.0000   0.7962
     0.0000   0.0000   0.0000   0.0000   0.0000   0.0000   0.0000   0.0000
     0.0000   0.0000

          k =-0.0000 0.6667 0.0000 (137418 PWs)   bands (ev):

   -58.0950 -57.9944 -57.9930 -34.5394 -34.3179 -34.3156 -34.3028 -34.1782
   -34.1748 -33.9390 -33.7996 -33.7793 -19.5589 -18.8884 -18.7067 -18.6454
   -18.4138 -18.1988 -18.1261 -17.9250  -8.8952  -8.5907  -8.4957  -8.2519
    -8.2459  -7.9438  -7.8661  -7.7444  -7.5707  -7.5218  -7.4786  -7.2440
    -7.1008  -7.0969  -6.9573  -6.6618  -6.5300  -6.2952  -6.2747  -6.1068
    -5.8266  -5.6161  -5.5800  -5.2570  -4.0306  -3.2809  -3.1862  -2.0961
    -1.2332  -0.8968  -0.4286  -0.3946  -0.3603  -0.2490  -0.1724   0.2708
     0.6847   0.7402

     occupation numbers 
     1.0000   1.0000   1.0000   1.0000   1.0000   1.0000   1.0000   1.0000
     1.0000   1.0000   1.0000   1.0000   1.0000   1.0000   1.0000   1.0000
     1.0000   1.0000   1.0000   1.0000   1.0000   1.0000   1.0000   1.0000
     1.0000   1.0000   1.0000   1.0000   1.0000   1.0000   1.0000   1.0000
     1.0000   1.0000   1.0000   1.0000   1.0000   1.0000   1.0000   1.0000
     1.0000   1.0000   1.0000   1.0000   1.0000   1.0000   1.0000   0.5773
     0.0000   0.0000   0.0000   0.0000   0.0000   0.0000   0.0000   0.0000
     0.0000   0.0000

     the Fermi energy is    -2.0840 ev

!    total energy              =    -585.08218103 Ry
     estimated scf accuracy    <          6.2E-13 Ry
     smearing contrib. (-TS)   =      -0.00044391 Ry
     internal energy E=F+TS    =    -585.08173712 Ry

     convergence has been achieved in  16 iterations

     Forces acting on atoms (cartesian axes, Ry/au):

     atom    1 type  1   force =    -0.00391305   -0.00000000    0.00740542
     atom    2 type  1   force =     0.00195653   -0.00338880    0.00740542
     atom    3 type  1   force =     0.00195653    0.00338880    0.00740542
     atom    4 type  2   force =     0.00077349   -0.00000000   -0.00517914
     atom    5 type  2   force =    -0.00038675    0.00066987   -0.00517914
     atom    6 type  2   force =    -0.00038675   -0.00066987   -0.00517914
     atom    7 type  2   force =     0.00000000    0.00000000   -0.00023147
     atom    8 type  2   force =    -0.00021601   -0.00000000   -0.00222581
     atom    9 type  2   force =     0.00010801   -0.00018707   -0.00222581
     atom   10 type  2   force =     0.00010801    0.00018707   -0.00222581
     atom   11 type  2   force =     0.00000000    0.00000000    0.00023005
     The non-local contrib.  to forces
     atom    1 type  1   force =     0.23445150    0.00000000    0.03667998
     atom    2 type  1   force =    -0.11722575    0.20304095    0.03667998
     atom    3 type  1   force =    -0.11722575   -0.20304095    0.03667998
     atom    4 type  2   force =    -0.19436053    0.00000000    0.28083262
     atom    5 type  2   force =     0.09718027   -0.16832116    0.28083262
     atom    6 type  2   force =     0.09718027    0.16832116    0.28083262
     atom    7 type  2   force =    -0.00000000   -0.00000000    0.35135537
     atom    8 type  2   force =     0.17178451   -0.00000000   -0.28124990
     atom    9 type  2   force =    -0.08589226    0.14876975   -0.28124990
     atom   10 type  2   force =    -0.08589226   -0.14876975   -0.28124990
     atom   11 type  2   force =     0.00000000    0.00000000   -0.43859474
     The ionic contribution  to forces
     atom    1 type  1   force =    -9.26713332   -0.00000000    1.06646522
     atom    2 type  1   force =     4.63356666   -8.02557288    1.06646522
     atom    3 type  1   force =     4.63356666    8.02557288    1.06646522
     atom    4 type  2   force =     6.48635254    0.00000000  -35.08522550
     atom    5 type  2   force =    -3.24317627    5.61734608  -35.08522549
     atom    6 type  2   force =    -3.24317627   -5.61734608  -35.08522549
     atom    7 type  2   force =    -0.00000000   -0.00000000  -30.09867835
     atom    8 type  2   force =    -3.53804676    0.00000000   29.80667205
     atom    9 type  2   force =     1.76902338   -3.06403837   29.80667205
     atom   10 type  2   force =     1.76902338    3.06403837   29.80667205
     atom   11 type  2   force =     0.00000000   -0.00000000   42.73494302
     The local contribution  to forces
     atom    1 type  1   force =     9.02658814   -0.00000000   -1.09568283
     atom    2 type  1   force =    -4.51329413    7.81725466   -1.09568283
     atom    3 type  1   force =    -4.51329413   -7.81725466   -1.09568283
     atom    4 type  2   force =    -6.29209006    0.00000000   34.79766271
     atom    5 type  2   force =     3.14604504   -5.44910984   34.79766271
     atom    6 type  2   force =     3.14604504    5.44910984   34.79766271
     atom    7 type  2   force =    -0.00000001    0.00000000   29.74714800
     atom    8 type  2   force =     3.36659748    0.00000000  -29.52649961
     atom    9 type  2   force =    -1.68329875    2.91555895  -29.52649960
     atom   10 type  2   force =    -1.68329875   -2.91555895  -29.52649960
     atom   11 type  2   force =    -0.00000000   -0.00000000  -42.29513568
     The core correction contribution to forces
     atom    1 type  1   force =     0.00000000    0.00000000    0.00000000
     atom    2 type  1   force =     0.00000000    0.00000000    0.00000000
     atom    3 type  1   force =     0.00000000    0.00000000    0.00000000
     atom    4 type  2   force =     0.00000000    0.00000000    0.00000000
     atom    5 type  2   force =     0.00000000    0.00000000    0.00000000
     atom    6 type  2   force =     0.00000000    0.00000000    0.00000000
     atom    7 type  2   force =     0.00000000    0.00000000    0.00000000
     atom    8 type  2   force =     0.00000000    0.00000000    0.00000000
     atom    9 type  2   force =     0.00000000    0.00000000    0.00000000
     atom   10 type  2   force =     0.00000000    0.00000000    0.00000000
     atom   11 type  2   force =     0.00000000    0.00000000    0.00000000
     The Hubbard contrib.    to forces
     atom    1 type  1   force =     0.00000000    0.00000000    0.00000000
     atom    2 type  1   force =     0.00000000    0.00000000    0.00000000
     atom    3 type  1   force =     0.00000000    0.00000000    0.00000000
     atom    4 type  2   force =     0.00000000    0.00000000    0.00000000
     atom    5 type  2   force =     0.00000000    0.00000000    0.00000000
     atom    6 type  2   force =     0.00000000    0.00000000    0.00000000
     atom    7 type  2   force =     0.00000000    0.00000000    0.00000000
     atom    8 type  2   force =     0.00000000    0.00000000    0.00000000
     atom    9 type  2   force =     0.00000000    0.00000000    0.00000000
     atom   10 type  2   force =     0.00000000    0.00000000    0.00000000
     atom   11 type  2   force =     0.00000000    0.00000000    0.00000000
     The SCF correction term to forces
     atom    1 type  1   force =     0.00000009   -0.00000000   -0.00000120
     atom    2 type  1   force =    -0.00000005    0.00000008   -0.00000120
     atom    3 type  1   force =    -0.00000005   -0.00000008   -0.00000120
     atom    4 type  2   force =    -0.00000004    0.00000000    0.00000021
     atom    5 type  2   force =     0.00000002   -0.00000003    0.00000021
     atom    6 type  2   force =     0.00000002    0.00000003    0.00000021
     atom    7 type  2   force =    -0.00000000   -0.00000000    0.00000020
     atom    8 type  2   force =     0.00000030   -0.00000000   -0.00000116
     atom    9 type  2   force =    -0.00000015    0.00000026   -0.00000116
     atom   10 type  2   force =    -0.00000015   -0.00000026   -0.00000116
     atom   11 type  2   force =     0.00000000    0.00000000   -0.00000130

     DFT-D3 dispersion contribution to forces:
     atom    1 type  1   force =     0.00218051    0.00000000   -0.00005626
     atom    2 type  1   force =    -0.00109025    0.00188837   -0.00005626
     atom    3 type  1   force =    -0.00109025   -0.00188837   -0.00005626
     atom    4 type  2   force =     0.00087159   -0.00000000    0.00155030
     atom    5 type  2   force =    -0.00043580    0.00075482    0.00155030
     atom    6 type  2   force =    -0.00043580   -0.00075482    0.00155030
     atom    7 type  2   force =    -0.00000000    0.00000000   -0.00005721
     atom    8 type  2   force =    -0.00055156    0.00000000   -0.00114772
     atom    9 type  2   force =     0.00027578   -0.00047766   -0.00114772
     atom   10 type  2   force =     0.00027578    0.00047766   -0.00114772
     atom   11 type  2   force =     0.00000000   -0.00000000   -0.00098176

     Total force =     0.017545     Total SCF correction =     0.000003

     DFT-D3 dispersion Force =     0.005440


     Computing stress (Cartesian axis) and pressure

          total   stress  (Ry/bohr**3)                   (kbar)     P=        1.21
   0.00001056  -0.00000000   0.00000000            1.55       -0.00        0.00
   0.00000000   0.00001056   0.00000000            0.00        1.55        0.00
   0.00000000   0.00000000   0.00000359            0.00        0.00        0.53

     kinetic stress (kbar)   2344.44     -0.00     -0.00
                                0.00   2344.44     -0.00
                                0.00      0.00   2322.52

     local   stress (kbar)-105396.99      0.00      0.00
                                0.00-105396.99     -0.00
                                0.00     -0.00 101454.00

     nonloc. stress (kbar)   2131.61     -0.00     -0.00
                               -0.00   2131.61     -0.00
                                0.00      0.00   2138.51

     hartree stress (kbar)  51702.50     -0.00     -0.00
                               -0.00  51702.50      0.00
                               -0.00      0.00 -50247.34

     exc-cor stress (kbar)   -496.07     -0.00      0.00
                               -0.00   -496.07      0.00
                                0.00      0.00   -497.22

     corecor stress (kbar)      0.00      0.00      0.00
                                0.00      0.00      0.00
                                0.00      0.00      0.00

     ewald   stress (kbar)  49717.99     -0.00     -0.00
                               -0.00  49717.99      0.00
                               -0.00      0.00 -55169.47

     hubbard stress (kbar)      0.00      0.00      0.00
                                0.00      0.00      0.00
                                0.00      0.00      0.00

     DFT-D   stress (kbar)     -1.92      0.00     -0.00
                                0.00     -1.92     -0.00
                               -0.00     -0.00     -0.48

     XDM     stress (kbar)      0.00      0.00      0.00
                                0.00      0.00      0.00
                                0.00      0.00      0.00

     dft-nl  stress (kbar)      0.00      0.00      0.00
                                0.00      0.00      0.00
                                0.00      0.00      0.00

     TS-vdW  stress (kbar)      0.00      0.00      0.00
                                0.00      0.00      0.00
                                0.00      0.00      0.00

     MDB     stress (kbar)      0.00      0.00      0.00
                                0.00      0.00      0.00
                                0.00      0.00      0.00

     3D-RISM stress (kbar)      0.00      0.00      0.00
                                0.00      0.00      0.00
                                0.00      0.00      0.00


     Damped Dynamics Calculation

     Entering Dynamics:    iteration =     1

ATOMIC_POSITIONS (crystal)
Nb              -0.1385982347        0.1385982347        0.1016007082
Nb              -0.1385982347       -0.2771964694        0.1016007082
Nb               0.2771964694        0.1385982347        0.1016007082
Cl               0.1653341992       -0.1653341992        0.0480159145
Cl               0.1653341992        0.3306683986        0.0480159145
Cl              -0.3306683986       -0.1653341992        0.0480159145
Cl              -0.3333333333        0.3333333333        0.0570314089
Cl               0.4987869785       -0.4987869785        0.1461612064
Cl               0.4987869785       -0.0024260431        0.1461612064
Cl               0.0024260431       -0.4987869785        0.1461612064
Cl               0.0000000000        0.0000000000        0.1617135649



     Writing config-only to output data dir ./out/Nb3Cl8.save/ :
     XML data file
     NEW-OLD atomic charge density approx. for the potential

     negative rho (up, down):  4.592E-05 0.000E+00

     total cpu time spent up to now is      280.1 secs

     per-process dynamical memory:   198.6 Mb

     Self-consistent Calculation

     iteration #  1     ecut=   100.00 Ry     beta= 0.70
     Davidson diagonalization with overlap

---- Real-time Memory Report at c_bands before calling an iterative solver
           282 MiB given to the printing process from OS
           193 MiB allocation reported by mallinfo(arena+hblkhd)
        319887 MiB available memory on the node where the printing process lives
------------------
     ethr =  1.00E-06,  avg # of iterations =  3.3

     Threshold (ethr) on eigenvalues was too large:
     Diagonalizing with lowered threshold

     Davidson diagonalization with overlap

---- Real-time Memory Report at c_bands before calling an iterative solver
           282 MiB given to the printing process from OS
           193 MiB allocation reported by mallinfo(arena+hblkhd)
        321780 MiB available memory on the node where the printing process lives
------------------
     ethr =  1.51E-08,  avg # of iterations =  8.3

     negative rho (up, down):  1.266E-05 0.000E+00

     total cpu time spent up to now is      283.4 secs

     total energy              =    -585.08229007 Ry
     estimated scf accuracy    <       0.00001444 Ry

     iteration #  2     ecut=   100.00 Ry     beta= 0.70
     Davidson diagonalization with overlap

---- Real-time Memory Report at c_bands before calling an iterative solver
           282 MiB given to the printing process from OS
           193 MiB allocation reported by mallinfo(arena+hblkhd)
        320545 MiB available memory on the node where the printing process lives
------------------
     ethr =  1.52E-08,  avg # of iterations =  7.1

     negative rho (up, down):  9.891E-06 0.000E+00

     total cpu time spent up to now is      284.6 secs

     total energy              =    -585.08228598 Ry
     estimated scf accuracy    <       0.00007387 Ry

     iteration #  3     ecut=   100.00 Ry     beta= 0.70
     Davidson diagonalization with overlap

---- Real-time Memory Report at c_bands before calling an iterative solver
           282 MiB given to the printing process from OS
           199 MiB allocation reported by mallinfo(arena+hblkhd)
        320716 MiB available memory on the node where the printing process lives
------------------
     ethr =  1.52E-08,  avg # of iterations =  5.3

     negative rho (up, down):  4.634E-06 0.000E+00

     total cpu time spent up to now is      285.6 secs

     total energy              =    -585.08229802 Ry
     estimated scf accuracy    <       0.00000082 Ry

     iteration #  4     ecut=   100.00 Ry     beta= 0.70
     Davidson diagonalization with overlap

---- Real-time Memory Report at c_bands before calling an iterative solver
           282 MiB given to the printing process from OS
           201 MiB allocation reported by mallinfo(arena+hblkhd)
        320729 MiB available memory on the node where the printing process lives
------------------
     ethr =  8.65E-10,  avg # of iterations =  7.9

     negative rho (up, down):  1.433E-06 0.000E+00

     total cpu time spent up to now is      286.8 secs

     total energy              =    -585.08229823 Ry
     estimated scf accuracy    <       0.00000017 Ry

     iteration #  5     ecut=   100.00 Ry     beta= 0.70
     Davidson diagonalization with overlap

---- Real-time Memory Report at c_bands before calling an iterative solver
           282 MiB given to the printing process from OS
           202 MiB allocation reported by mallinfo(arena+hblkhd)
        320683 MiB available memory on the node where the printing process lives
------------------
     ethr =  1.77E-10,  avg # of iterations =  5.4

     negative rho (up, down):  5.048E-07 0.000E+00

     total cpu time spent up to now is      287.9 secs

     total energy              =    -585.08229826 Ry
     estimated scf accuracy    <       0.00000009 Ry

     iteration #  6     ecut=   100.00 Ry     beta= 0.70
     Davidson diagonalization with overlap

---- Real-time Memory Report at c_bands before calling an iterative solver
           282 MiB given to the printing process from OS
           204 MiB allocation reported by mallinfo(arena+hblkhd)
        320671 MiB available memory on the node where the printing process lives
------------------
     ethr =  9.99E-11,  avg # of iterations =  5.3

     negative rho (up, down):  6.652E-08 0.000E+00

     total cpu time spent up to now is      289.1 secs

     total energy              =    -585.08229828 Ry
     estimated scf accuracy    <          1.7E-09 Ry

     iteration #  7     ecut=   100.00 Ry     beta= 0.70
     Davidson diagonalization with overlap

---- Real-time Memory Report at c_bands before calling an iterative solver
           282 MiB given to the printing process from OS
           205 MiB allocation reported by mallinfo(arena+hblkhd)
        320628 MiB available memory on the node where the printing process lives
------------------
     ethr =  1.74E-12,  avg # of iterations =  6.6

     total cpu time spent up to now is      290.2 secs

     total energy              =    -585.08229828 Ry
     estimated scf accuracy    <          5.2E-10 Ry

     iteration #  8     ecut=   100.00 Ry     beta= 0.70
     Davidson diagonalization with overlap

---- Real-time Memory Report at c_bands before calling an iterative solver
           282 MiB given to the printing process from OS
           206 MiB allocation reported by mallinfo(arena+hblkhd)
        320622 MiB available memory on the node where the printing process lives
------------------
     ethr =  5.47E-13,  avg # of iterations =  3.1

     total cpu time spent up to now is      291.1 secs

     total energy              =    -585.08229828 Ry
     estimated scf accuracy    <          8.1E-11 Ry

     iteration #  9     ecut=   100.00 Ry     beta= 0.70
     Davidson diagonalization with overlap

---- Real-time Memory Report at c_bands before calling an iterative solver
           282 MiB given to the printing process from OS
           208 MiB allocation reported by mallinfo(arena+hblkhd)
        320577 MiB available memory on the node where the printing process lives
------------------
     ethr =  1.00E-13,  avg # of iterations =  3.7

     total cpu time spent up to now is      292.2 secs

     total energy              =    -585.08229828 Ry
     estimated scf accuracy    <          7.7E-12 Ry

     iteration # 10     ecut=   100.00 Ry     beta= 0.70
     Davidson diagonalization with overlap

---- Real-time Memory Report at c_bands before calling an iterative solver
           282 MiB given to the printing process from OS
           209 MiB allocation reported by mallinfo(arena+hblkhd)
        320553 MiB available memory on the node where the printing process lives
------------------
     ethr =  1.00E-13,  avg # of iterations =  1.3

     total cpu time spent up to now is      292.9 secs

     End of self-consistent calculation

          k = 0.0000 0.0000 0.0000 (137531 PWs)   bands (ev):

   -58.0976 -57.9948 -57.9948 -34.5684 -34.3301 -34.3301 -34.3110 -34.1729
   -34.1729 -33.9258 -33.7686 -33.7686 -19.6625 -19.0790 -18.5800 -18.4572
   -18.4572 -18.2877 -17.9402 -17.9402  -9.2042  -9.2042  -8.8537  -8.6748
    -8.2313  -8.2313  -8.0891  -7.9131  -7.6391  -7.6391  -7.1783  -7.0005
    -7.0005  -6.5896  -6.4882  -6.4882  -6.2105  -6.2105  -6.1374  -6.0446
    -5.4706  -5.4706  -4.9178  -4.9178  -3.8601  -3.2985  -3.2985  -1.9694
    -1.1699  -1.1699  -0.1851  -0.1851  -0.1587   0.2290   0.2290   0.2417
     0.5822   0.5822

     occupation numbers 
     1.0000   1.0000   1.0000   1.0000   1.0000   1.0000   1.0000   1.0000
     1.0000   1.0000   1.0000   1.0000   1.0000   1.0000   1.0000   1.0000
     1.0000   1.0000   1.0000   1.0000   1.0000   1.0000   1.0000   1.0000
     1.0000   1.0000   1.0000   1.0000   1.0000   1.0000   1.0000   1.0000
     1.0000   1.0000   1.0000   1.0000   1.0000   1.0000   1.0000   1.0000
     1.0000   1.0000   1.0000   1.0000   1.0000   1.0000   1.0000   0.0000
     0.0000   0.0000   0.0000   0.0000   0.0000   0.0000   0.0000   0.0000
     0.0000   0.0000

          k =-0.0962 0.1667 0.0000 (137449 PWs)   bands (ev):

   -58.0973 -57.9951 -57.9948 -34.5621 -34.3289 -34.3253 -34.3093 -34.1747
   -34.1730 -33.9291 -33.7772 -33.7703 -19.6405 -19.0553 -18.5959 -18.4794
   -18.4525 -18.2785 -17.9698 -17.9453  -9.1158  -9.1050  -8.7804  -8.6180
    -8.2534  -8.2304  -7.9931  -7.8642  -7.6412  -7.6299  -7.1374  -7.1117
    -6.9914  -6.7472  -6.5823  -6.4191  -6.3018  -6.2590  -6.1433  -6.0102
    -5.6140  -5.4840  -5.1290  -4.9515  -3.9177  -3.2882  -3.2655  -2.0032
    -1.1540  -1.1354  -0.2878  -0.2314  -0.2007   0.0333   0.1550   0.2412
     0.5957   0.7277

     occupation numbers 
     1.0000   1.0000   1.0000   1.0000   1.0000   1.0000   1.0000   1.0000
     1.0000   1.0000   1.0000   1.0000   1.0000   1.0000   1.0000   1.0000
     1.0000   1.0000   1.0000   1.0000   1.0000   1.0000   1.0000   1.0000
     1.0000   1.0000   1.0000   1.0000   1.0000   1.0000   1.0000   1.0000
     1.0000   1.0000   1.0000   1.0000   1.0000   1.0000   1.0000   1.0000
     1.0000   1.0000   1.0000   1.0000   1.0000   1.0000   1.0000   0.0019
     0.0000   0.0000   0.0000   0.0000   0.0000   0.0000   0.0000   0.0000
     0.0000   0.0000

          k =-0.1925 0.3333 0.0000 (137535 PWs)   bands (ev):

   -58.0966 -57.9957 -57.9948 -34.5492 -34.3262 -34.3154 -34.3059 -34.1786
   -34.1735 -33.9362 -33.7950 -33.7737 -19.5960 -18.9845 -18.6649 -18.5110
   -18.4428 -18.2584 -18.0297 -17.9559  -8.9207  -8.9054  -8.7139  -8.3307
    -8.2351  -8.0719  -7.9142  -7.8000  -7.7153  -7.6331  -7.2567  -7.1164
    -6.9993  -6.9481  -6.7805  -6.5234  -6.4297  -6.3686  -6.0753  -6.0719
    -5.8168  -5.5426  -5.5010  -5.0113  -4.0183  -3.2818  -3.2023  -2.0956
    -1.1255  -1.0588  -0.4809  -0.3634  -0.3157  -0.0920   0.1791   0.1904
     0.5106   0.7338

     occupation numbers 
     1.0000   1.0000   1.0000   1.0000   1.0000   1.0000   1.0000   1.0000
     1.0000   1.0000   1.0000   1.0000   1.0000   1.0000   1.0000   1.0000
     1.0000   1.0000   1.0000   1.0000   1.0000   1.0000   1.0000   1.0000
     1.0000   1.0000   1.0000   1.0000   1.0000   1.0000   1.0000   1.0000
     1.0000   1.0000   1.0000   1.0000   1.0000   1.0000   1.0000   1.0000
     1.0000   1.0000   1.0000   1.0000   1.0000   1.0000   1.0000   0.5401
     0.0000   0.0000   0.0000   0.0000   0.0000   0.0000   0.0000   0.0000
     0.0000   0.0000

          k = 0.2887-0.5000 0.0000 (137556 PWs)   bands (ev):

   -58.0963 -57.9961 -57.9948 -34.5427 -34.3246 -34.3102 -34.3041 -34.1806
   -34.1737 -33.9400 -33.8042 -33.7752 -19.5736 -18.9162 -18.7397 -18.5203
   -18.4379 -18.2461 -18.0611 -17.9613  -8.8832  -8.8208  -8.4294  -8.3476
    -8.1174  -8.0323  -7.8593  -7.8334  -7.7429  -7.4211  -7.3874  -7.1993
    -7.1956  -6.9274  -6.7730  -6.7675  -6.5246  -6.4412  -6.0576  -6.0203
    -5.8411  -5.6967  -5.5916  -5.0358  -4.0626  -3.2856  -3.1714  -2.1512
    -1.1091  -1.0151  -0.5748  -0.4355  -0.3513  -0.1293   0.1772   0.1880
     0.4622   0.7096

     occupation numbers 
     1.0000   1.0000   1.0000   1.0000   1.0000   1.0000   1.0000   1.0000
     1.0000   1.0000   1.0000   1.0000   1.0000   1.0000   1.0000   1.0000
     1.0000   1.0000   1.0000   1.0000   1.0000   1.0000   1.0000   1.0000
     1.0000   1.0000   1.0000   1.0000   1.0000   1.0000   1.0000   1.0000
     1.0000   1.0000   1.0000   1.0000   1.0000   1.0000   1.0000   1.0000
     1.0000   1.0000   1.0000   1.0000   1.0000   1.0000   1.0000   1.0802
     0.0000   0.0000   0.0000   0.0000   0.0000   0.0000   0.0000   0.0000
     0.0000   0.0000

          k =-0.0000 0.3333 0.0000 (137410 PWs)   bands (ev):

   -58.0968 -57.9956 -57.9948 -34.5524 -34.3264 -34.3186 -34.3068 -34.1773
   -34.1736 -33.9343 -33.7894 -33.7740 -19.6072 -19.0075 -18.6310 -18.5238
   -18.4360 -18.2622 -18.0230 -17.9462  -8.9701  -8.9515  -8.7287  -8.4336
    -8.2723  -8.1000  -7.9448  -7.7749  -7.6782  -7.6359  -7.2259  -7.1292
    -7.0102  -6.8955  -6.7732  -6.4509  -6.3267  -6.2915  -6.2118  -5.9689
    -5.8152  -5.6006  -5.3241  -5.0434  -3.9862  -3.2870  -3.2128  -2.0586
    -1.1776  -1.0408  -0.4270  -0.3309  -0.2330  -0.0921   0.0805   0.2099
     0.5751   0.8260

     occupation numbers 
     1.0000   1.0000   1.0000   1.0000   1.0000   1.0000   1.0000   1.0000
     1.0000   1.0000   1.0000   1.0000   1.0000   1.0000   1.0000   1.0000
     1.0000   1.0000   1.0000   1.0000   1.0000   1.0000   1.0000   1.0000
     1.0000   1.0000   1.0000   1.0000   1.0000   1.0000   1.0000   1.0000
     1.0000   1.0000   1.0000   1.0000   1.0000   1.0000   1.0000   1.0000
     1.0000   1.0000   1.0000   1.0000   1.0000   1.0000   1.0000   0.1211
     0.0000   0.0000   0.0000   0.0000   0.0000   0.0000   0.0000   0.0000
     0.0000   0.0000

          k =-0.0962 0.5000 0.0000 (137449 PWs)   bands (ev):

   -58.0963 -57.9961 -57.9948 -34.5424 -34.3228 -34.3127 -34.3041 -34.1797
   -34.1745 -33.9396 -33.8014 -33.7781 -19.5739 -18.9257 -18.7018 -18.5681
   -18.4189 -18.2371 -18.0854 -17.9451  -8.9029  -8.7522  -8.5265  -8.3009
    -8.2155  -7.9607  -7.8646  -7.7474  -7.7049  -7.5601  -7.4012  -7.2129
    -7.1191  -6.9580  -6.8296  -6.6937  -6.5189  -6.2797  -6.1422  -6.0983
    -5.8612  -5.6793  -5.5214  -5.1314  -4.0353  -3.2854  -3.1782  -2.1134
    -1.1911  -0.9526  -0.5221  -0.4000  -0.3141  -0.1901  -0.0016   0.2315
     0.5578   0.7778

     occupation numbers 
     1.0000   1.0000   1.0000   1.0000   1.0000   1.0000   1.0000   1.0000
     1.0000   1.0000   1.0000   1.0000   1.0000   1.0000   1.0000   1.0000
     1.0000   1.0000   1.0000   1.0000   1.0000   1.0000   1.0000   1.0000
     1.0000   1.0000   1.0000   1.0000   1.0000   1.0000   1.0000   1.0000
     1.0000   1.0000   1.0000   1.0000   1.0000   1.0000   1.0000   1.0000
     1.0000   1.0000   1.0000   1.0000   1.0000   1.0000   1.0000   0.8007
     0.0000   0.0000   0.0000   0.0000   0.0000   0.0000   0.0000   0.0000
     0.0000   0.0000

          k =-0.0000 0.6667 0.0000 (137418 PWs)   bands (ev):

   -58.0961 -57.9962 -57.9948 -34.5388 -34.3177 -34.3153 -34.3032 -34.1793
   -34.1759 -33.9410 -33.8027 -33.7824 -19.5632 -18.8865 -18.6960 -18.6339
   -18.4044 -18.2093 -18.1341 -17.9351  -8.8960  -8.5937  -8.4980  -8.2514
    -8.2389  -7.9372  -7.8681  -7.7453  -7.5671  -7.5162  -7.4694  -7.2409
    -7.1052  -7.0974  -6.9620  -6.6545  -6.5241  -6.3019  -6.2831  -6.1112
    -5.8291  -5.6184  -5.5726  -5.2663  -4.0271  -3.2790  -3.1849  -2.0986
    -1.2351  -0.8971  -0.4327  -0.4029  -0.3642  -0.2467  -0.1738   0.2743
     0.6856   0.7372

     occupation numbers 
     1.0000   1.0000   1.0000   1.0000   1.0000   1.0000   1.0000   1.0000
     1.0000   1.0000   1.0000   1.0000   1.0000   1.0000   1.0000   1.0000
     1.0000   1.0000   1.0000   1.0000   1.0000   1.0000   1.0000   1.0000
     1.0000   1.0000   1.0000   1.0000   1.0000   1.0000   1.0000   1.0000
     1.0000   1.0000   1.0000   1.0000   1.0000   1.0000   1.0000   1.0000
     1.0000   1.0000   1.0000   1.0000   1.0000   1.0000   1.0000   0.5859
     0.0000   0.0000   0.0000   0.0000   0.0000   0.0000   0.0000   0.0000
     0.0000   0.0000

     the Fermi energy is    -2.0859 ev

!    total energy              =    -585.08229828 Ry
     estimated scf accuracy    <          5.0E-13 Ry
     smearing contrib. (-TS)   =      -0.00043303 Ry
     internal energy E=F+TS    =    -585.08186526 Ry

     convergence has been achieved in  10 iterations

     Forces acting on atoms (cartesian axes, Ry/au):

     atom    1 type  1   force =    -0.00280078   -0.00000000    0.00538223
     atom    2 type  1   force =     0.00140039   -0.00242554    0.00538223
     atom    3 type  1   force =     0.00140039    0.00242554    0.00538223
     atom    4 type  2   force =     0.00011939    0.00000000   -0.00397626
     atom    5 type  2   force =    -0.00005970    0.00010340   -0.00397626
     atom    6 type  2   force =    -0.00005970   -0.00010340   -0.00397626
     atom    7 type  2   force =     0.00000000   -0.00000000    0.00008037
     atom    8 type  2   force =    -0.00041471    0.00000000   -0.00173144
     atom    9 type  2   force =     0.00020735   -0.00035915   -0.00173144
     atom   10 type  2   force =     0.00020735    0.00035915   -0.00173144
     atom   11 type  2   force =    -0.00000000    0.00000000    0.00089605
     The non-local contrib.  to forces
     atom    1 type  1   force =     0.23460817   -0.00000000    0.03710879
     atom    2 type  1   force =    -0.11730408    0.20317663    0.03710879
     atom    3 type  1   force =    -0.11730408   -0.20317663    0.03710879
     atom    4 type  2   force =    -0.19484176    0.00000000    0.28258703
     atom    5 type  2   force =     0.09742088   -0.16873792    0.28258703
     atom    6 type  2   force =     0.09742088    0.16873792    0.28258703
     atom    7 type  2   force =     0.00000000    0.00000000    0.35242950
     atom    8 type  2   force =     0.17193184   -0.00000000   -0.28033934
     atom    9 type  2   force =    -0.08596592    0.14889734   -0.28033934
     atom   10 type  2   force =    -0.08596592   -0.14889734   -0.28033934
     atom   11 type  2   force =    -0.00000000   -0.00000000   -0.43828744
     The ionic contribution  to forces
     atom    1 type  1   force =    -9.22102571    0.00000000    1.08218692
     atom    2 type  1   force =     4.61051285   -7.98564252    1.08218692
     atom    3 type  1   force =     4.61051285    7.98564252    1.08218692
     atom    4 type  2   force =     6.45937339   -0.00000000  -35.08590042
     atom    5 type  2   force =    -3.22968669    5.59398145  -35.08590041
     atom    6 type  2   force =    -3.22968669   -5.59398145  -35.08590041
     atom    7 type  2   force =    -0.00000000    0.00000000  -30.11093987
     atom    8 type  2   force =    -3.55025646    0.00000000   29.79726077
     atom    9 type  2   force =     1.77512823   -3.07461228   29.79726077
     atom   10 type  2   force =     1.77512823    3.07461228   29.79726077
     atom   11 type  2   force =     0.00000000   -0.00000000   42.73029805
     The local contribution  to forces
     atom    1 type  1   force =     8.98143273   -0.00000000   -1.11385703
     atom    2 type  1   force =    -4.49071643    7.77814894   -1.11385703
     atom    3 type  1   force =    -4.49071643   -7.77814894   -1.11385703
     atom    4 type  2   force =    -6.26527771    0.00000000   34.79778458
     atom    5 type  2   force =     3.13263887   -5.42588967   34.79778458
     atom    6 type  2   force =     3.13263887    5.42588967   34.79778458
     atom    7 type  2   force =    -0.00000001   -0.00000000   29.75864962
     atom    8 type  2   force =     3.37846160   -0.00000000  -29.51750564
     atom    9 type  2   force =    -1.68923081    2.92583358  -29.51750564
     atom   10 type  2   force =    -1.68923081   -2.92583358  -29.51750564
     atom   11 type  2   force =     0.00000000   -0.00000000  -42.29013322
     The core correction contribution to forces
     atom    1 type  1   force =     0.00000000    0.00000000    0.00000000
     atom    2 type  1   force =     0.00000000    0.00000000    0.00000000
     atom    3 type  1   force =     0.00000000    0.00000000    0.00000000
     atom    4 type  2   force =     0.00000000    0.00000000    0.00000000
     atom    5 type  2   force =     0.00000000    0.00000000    0.00000000
     atom    6 type  2   force =     0.00000000    0.00000000    0.00000000
     atom    7 type  2   force =     0.00000000    0.00000000    0.00000000
     atom    8 type  2   force =     0.00000000    0.00000000    0.00000000
     atom    9 type  2   force =     0.00000000    0.00000000    0.00000000
     atom   10 type  2   force =     0.00000000    0.00000000    0.00000000
     atom   11 type  2   force =     0.00000000    0.00000000    0.00000000
     The Hubbard contrib.    to forces
     atom    1 type  1   force =     0.00000000    0.00000000    0.00000000
     atom    2 type  1   force =     0.00000000    0.00000000    0.00000000
     atom    3 type  1   force =     0.00000000    0.00000000    0.00000000
     atom    4 type  2   force =     0.00000000    0.00000000    0.00000000
     atom    5 type  2   force =     0.00000000    0.00000000    0.00000000
     atom    6 type  2   force =     0.00000000    0.00000000    0.00000000
     atom    7 type  2   force =     0.00000000    0.00000000    0.00000000
     atom    8 type  2   force =     0.00000000    0.00000000    0.00000000
     atom    9 type  2   force =     0.00000000    0.00000000    0.00000000
     atom   10 type  2   force =     0.00000000    0.00000000    0.00000000
     atom   11 type  2   force =     0.00000000    0.00000000    0.00000000
     The SCF correction term to forces
     atom    1 type  1   force =     0.00000095    0.00000000   -0.00000031
     atom    2 type  1   force =    -0.00000048    0.00000082   -0.00000031
     atom    3 type  1   force =    -0.00000048   -0.00000082   -0.00000031
     atom    4 type  2   force =    -0.00000010    0.00000000   -0.00000046
     atom    5 type  2   force =     0.00000005   -0.00000008   -0.00000046
     atom    6 type  2   force =     0.00000005    0.00000008   -0.00000046
     atom    7 type  2   force =     0.00000000    0.00000000   -0.00000058
     atom    8 type  2   force =    -0.00000088    0.00000000    0.00000067
     atom    9 type  2   force =     0.00000044   -0.00000077    0.00000067
     atom   10 type  2   force =     0.00000044    0.00000077    0.00000067
     atom   11 type  2   force =     0.00000000    0.00000000    0.00000045

     DFT-D3 dispersion contribution to forces:
     atom    1 type  1   force =     0.00218304   -0.00000000   -0.00005674
     atom    2 type  1   force =    -0.00109152    0.00189057   -0.00005674
     atom    3 type  1   force =    -0.00109152   -0.00189057   -0.00005674
     atom    4 type  2   force =     0.00086558    0.00000000    0.00155238
     atom    5 type  2   force =    -0.00043279    0.00074961    0.00155238
     atom    6 type  2   force =    -0.00043279   -0.00074961    0.00155238
     atom    7 type  2   force =    -0.00000000   -0.00000000   -0.00005893
     atom    8 type  2   force =    -0.00055082   -0.00000000   -0.00114852
     atom    9 type  2   force =     0.00027541   -0.00047702   -0.00114852
     atom   10 type  2   force =     0.00027541    0.00047702   -0.00114852
     atom   11 type  2   force =     0.00000000    0.00000000   -0.00098242

     Total force =     0.012970     Total SCF correction =     0.000003

     DFT-D3 dispersion Force =     0.005442


     Computing stress (Cartesian axis) and pressure

          total   stress  (Ry/bohr**3)                   (kbar)     P=        1.13
   0.00001007  -0.00000000   0.00000000            1.48       -0.00        0.00
  -0.00000000   0.00001007   0.00000000           -0.00        1.48        0.00
   0.00000000   0.00000000   0.00000288            0.00        0.00        0.42

     kinetic stress (kbar)   2344.33     -0.00      0.00
                               -0.00   2344.33      0.00
                                0.00      0.00   2322.44

     local   stress (kbar)-105390.28      0.00      0.00
                                0.00-105390.28     -0.00
                                0.00     -0.00 101448.82

     nonloc. stress (kbar)   2131.59     -0.00      0.00
                               -0.00   2131.59      0.00
                                0.00      0.00   2138.47

     hartree stress (kbar)  51699.20     -0.00     -0.00
                               -0.00  51699.20      0.00
                               -0.00      0.00 -50244.83

     exc-cor stress (kbar)   -496.06      0.00      0.00
                                0.00   -496.06     -0.00
                                0.00     -0.00   -497.20

     corecor stress (kbar)      0.00      0.00      0.00
                                0.00      0.00      0.00
                                0.00      0.00      0.00

     ewald   stress (kbar)  49714.61      0.00     -0.00
                                0.00  49714.61     -0.00
                               -0.00     -0.00 -55166.79

     hubbard stress (kbar)      0.00      0.00      0.00
                                0.00      0.00      0.00
                                0.00      0.00      0.00

     DFT-D   stress (kbar)     -1.92     -0.00     -0.00
                               -0.00     -1.92      0.00
                               -0.00      0.00     -0.48

     XDM     stress (kbar)      0.00      0.00      0.00
                                0.00      0.00      0.00
                                0.00      0.00      0.00

     dft-nl  stress (kbar)      0.00      0.00      0.00
                                0.00      0.00      0.00
                                0.00      0.00      0.00

     TS-vdW  stress (kbar)      0.00      0.00      0.00
                                0.00      0.00      0.00
                                0.00      0.00      0.00

     MDB     stress (kbar)      0.00      0.00      0.00
                                0.00      0.00      0.00
                                0.00      0.00      0.00

     3D-RISM stress (kbar)      0.00      0.00      0.00
                                0.00      0.00      0.00
                                0.00      0.00      0.00


     Entering Dynamics:    iteration =     2

     <vel(dt)|acc(dt)> =   0.97932957

ATOMIC_POSITIONS (crystal)
Nb              -0.1387634147        0.1387634147        0.1017235867
Nb              -0.1387634147       -0.2775268296        0.1017235867
Nb               0.2775268296        0.1387634147        0.1017235867
Cl               0.1653098702       -0.1653098702        0.0479194005
Cl               0.1653098702        0.3306197405        0.0479194005
Cl              -0.3306197405       -0.1653098702        0.0479194005
Cl              -0.3333333333        0.3333333333        0.0570399654
Cl               0.4987437300       -0.4987437300        0.1461186019
Cl               0.4987437300       -0.0025125401        0.1461186019
Cl               0.0025125401       -0.4987437300        0.1461186019
Cl               0.0000000000        0.0000000000        0.1617537285



     Writing config-only to output data dir ./out/Nb3Cl8.save/ :
     XML data file

     first order wave-functions extrapolation
     NEW-OLD atomic charge density approx. for the potential

     negative rho (up, down):  1.057E-04 0.000E+00

     total cpu time spent up to now is      359.9 secs

     per-process dynamical memory:   189.6 Mb

     Self-consistent Calculation

     iteration #  1     ecut=   100.00 Ry     beta= 0.70
     Davidson diagonalization with overlap

---- Real-time Memory Report at c_bands before calling an iterative solver
           282 MiB given to the printing process from OS
           185 MiB allocation reported by mallinfo(arena+hblkhd)
        319985 MiB available memory on the node where the printing process lives
------------------
     ethr =  1.00E-06,  avg # of iterations =  4.4

     Threshold (ethr) on eigenvalues was too large:
     Diagonalizing with lowered threshold

     Davidson diagonalization with overlap

---- Real-time Memory Report at c_bands before calling an iterative solver
           282 MiB given to the printing process from OS
           188 MiB allocation reported by mallinfo(arena+hblkhd)
        321831 MiB available memory on the node where the printing process lives
------------------
     ethr =  6.95E-08,  avg # of iterations =  6.0

     negative rho (up, down):  2.923E-05 0.000E+00

     total cpu time spent up to now is      363.2 secs

     total energy              =    -585.08240689 Ry
     estimated scf accuracy    <       0.00006786 Ry

     iteration #  2     ecut=   100.00 Ry     beta= 0.70
     Davidson diagonalization with overlap

---- Real-time Memory Report at c_bands before calling an iterative solver
           282 MiB given to the printing process from OS
           188 MiB allocation reported by mallinfo(arena+hblkhd)
        320632 MiB available memory on the node where the printing process lives
------------------
     ethr =  7.14E-08,  avg # of iterations =  6.7

     negative rho (up, down):  2.279E-05 0.000E+00

     total cpu time spent up to now is      364.9 secs

     total energy              =    -585.08238903 Ry
     estimated scf accuracy    <       0.00033802 Ry

     iteration #  3     ecut=   100.00 Ry     beta= 0.70
     Davidson diagonalization with overlap

---- Real-time Memory Report at c_bands before calling an iterative solver
           282 MiB given to the printing process from OS
           199 MiB allocation reported by mallinfo(arena+hblkhd)
        320816 MiB available memory on the node where the printing process lives
------------------
     ethr =  7.14E-08,  avg # of iterations =  5.7

     negative rho (up, down):  1.107E-05 0.000E+00

     total cpu time spent up to now is      366.0 secs

     total energy              =    -585.08244401 Ry
     estimated scf accuracy    <       0.00000415 Ry

     iteration #  4     ecut=   100.00 Ry     beta= 0.70
     Davidson diagonalization with overlap

---- Real-time Memory Report at c_bands before calling an iterative solver
           282 MiB given to the printing process from OS
           201 MiB allocation reported by mallinfo(arena+hblkhd)
        320803 MiB available memory on the node where the printing process lives
------------------
     ethr =  4.37E-09,  avg # of iterations =  7.6

     negative rho (up, down):  3.239E-06 0.000E+00

     total cpu time spent up to now is      367.2 secs

     total energy              =    -585.08244517 Ry
     estimated scf accuracy    <       0.00000071 Ry

     iteration #  5     ecut=   100.00 Ry     beta= 0.70
     Davidson diagonalization with overlap

---- Real-time Memory Report at c_bands before calling an iterative solver
           282 MiB given to the printing process from OS
           202 MiB allocation reported by mallinfo(arena+hblkhd)
        320766 MiB available memory on the node where the printing process lives
------------------
     ethr =  7.44E-10,  avg # of iterations =  5.0

     negative rho (up, down):  1.201E-06 0.000E+00

     total cpu time spent up to now is      368.1 secs

     total energy              =    -585.08244530 Ry
     estimated scf accuracy    <       0.00000048 Ry

     iteration #  6     ecut=   100.00 Ry     beta= 0.70
     Davidson diagonalization with overlap

---- Real-time Memory Report at c_bands before calling an iterative solver
           282 MiB given to the printing process from OS
           204 MiB allocation reported by mallinfo(arena+hblkhd)
        320734 MiB available memory on the node where the printing process lives
------------------
     ethr =  5.06E-10,  avg # of iterations =  3.0

     negative rho (up, down):  2.522E-07 0.000E+00

     total cpu time spent up to now is      369.3 secs

     total energy              =    -585.08244539 Ry
     estimated scf accuracy    <       0.00000001 Ry

     iteration #  7     ecut=   100.00 Ry     beta= 0.70
     Davidson diagonalization with overlap

---- Real-time Memory Report at c_bands before calling an iterative solver
           282 MiB given to the printing process from OS
           205 MiB allocation reported by mallinfo(arena+hblkhd)
        320702 MiB available memory on the node where the printing process lives
------------------
     ethr =  1.06E-11,  avg # of iterations =  9.4

     negative rho (up, down):  1.078E-08 0.000E+00

     total cpu time spent up to now is      370.5 secs

     total energy              =    -585.08244539 Ry
     estimated scf accuracy    <          2.3E-09 Ry

     iteration #  8     ecut=   100.00 Ry     beta= 0.70
     Davidson diagonalization with overlap

---- Real-time Memory Report at c_bands before calling an iterative solver
           282 MiB given to the printing process from OS
           206 MiB allocation reported by mallinfo(arena+hblkhd)
        320673 MiB available memory on the node where the printing process lives
------------------
     ethr =  2.42E-12,  avg # of iterations =  4.0

     total cpu time spent up to now is      371.5 secs

     total energy              =    -585.08244539 Ry
     estimated scf accuracy    <          4.6E-10 Ry

     iteration #  9     ecut=   100.00 Ry     beta= 0.70
     Davidson diagonalization with overlap

---- Real-time Memory Report at c_bands before calling an iterative solver
           282 MiB given to the printing process from OS
           208 MiB allocation reported by mallinfo(arena+hblkhd)
        320630 MiB available memory on the node where the printing process lives
------------------
     ethr =  4.83E-13,  avg # of iterations =  2.1

     total cpu time spent up to now is      372.3 secs

     total energy              =    -585.08244539 Ry
     estimated scf accuracy    <          6.1E-11 Ry

     iteration # 10     ecut=   100.00 Ry     beta= 0.70
     Davidson diagonalization with overlap

---- Real-time Memory Report at c_bands before calling an iterative solver
           282 MiB given to the printing process from OS
           209 MiB allocation reported by mallinfo(arena+hblkhd)
        320601 MiB available memory on the node where the printing process lives
------------------
     ethr =  1.00E-13,  avg # of iterations =  8.0

     total cpu time spent up to now is      373.4 secs

     total energy              =    -585.08244539 Ry
     estimated scf accuracy    <          3.1E-12 Ry

     iteration # 11     ecut=   100.00 Ry     beta= 0.70
     Davidson diagonalization with overlap

---- Real-time Memory Report at c_bands before calling an iterative solver
           282 MiB given to the printing process from OS
           211 MiB allocation reported by mallinfo(arena+hblkhd)
        320546 MiB available memory on the node where the printing process lives
------------------
     ethr =  1.00E-13,  avg # of iterations =  1.0

     total cpu time spent up to now is      374.1 secs

     End of self-consistent calculation

          k = 0.0000 0.0000 0.0000 (137531 PWs)   bands (ev):

   -58.1002 -57.9988 -57.9988 -34.5677 -34.3299 -34.3299 -34.3120 -34.1754
   -34.1754 -33.9299 -33.7750 -33.7750 -19.6678 -19.0689 -18.5709 -18.4344
   -18.4344 -18.3035 -17.9605 -17.9605  -9.2040  -9.2040  -8.8601  -8.6638
    -8.2310  -8.2310  -8.0780  -7.9154  -7.6216  -7.6216  -7.1753  -7.0090
    -7.0090  -6.5920  -6.4981  -6.4981  -6.2048  -6.2048  -6.1367  -6.0536
    -5.4512  -5.4512  -4.9375  -4.9375  -3.8550  -3.2940  -3.2940  -1.9661
    -1.1756  -1.1756  -0.1878  -0.1878  -0.1528   0.2241   0.2241   0.2254
     0.5702   0.5702

     occupation numbers 
     1.0000   1.0000   1.0000   1.0000   1.0000   1.0000   1.0000   1.0000
     1.0000   1.0000   1.0000   1.0000   1.0000   1.0000   1.0000   1.0000
     1.0000   1.0000   1.0000   1.0000   1.0000   1.0000   1.0000   1.0000
     1.0000   1.0000   1.0000   1.0000   1.0000   1.0000   1.0000   1.0000
     1.0000   1.0000   1.0000   1.0000   1.0000   1.0000   1.0000   1.0000
     1.0000   1.0000   1.0000   1.0000   1.0000   1.0000   1.0000   0.0000
     0.0000   0.0000   0.0000   0.0000   0.0000   0.0000   0.0000   0.0000
     0.0000   0.0000

          k =-0.0962 0.1667 0.0000 (137449 PWs)   bands (ev):

   -58.0999 -57.9991 -57.9988 -34.5613 -34.3287 -34.3251 -34.3103 -34.1772
   -34.1755 -33.9332 -33.7837 -33.7767 -19.6460 -19.0452 -18.5853 -18.4572
   -18.4292 -18.2948 -17.9902 -17.9662  -9.1161  -9.1055  -8.7871  -8.6060
    -8.2514  -8.2250  -7.9870  -7.8633  -7.6269  -7.6160  -7.1333  -7.1194
    -7.0005  -6.7522  -6.5836  -6.4201  -6.3003  -6.2620  -6.1401  -6.0188
    -5.5975  -5.4657  -5.1488  -4.9708  -3.9119  -3.2842  -3.2610  -2.0026
    -1.1596  -1.1388  -0.2907  -0.2368  -0.2017   0.0223   0.1560   0.2315
     0.5845   0.7219

     occupation numbers 
     1.0000   1.0000   1.0000   1.0000   1.0000   1.0000   1.0000   1.0000
     1.0000   1.0000   1.0000   1.0000   1.0000   1.0000   1.0000   1.0000
     1.0000   1.0000   1.0000   1.0000   1.0000   1.0000   1.0000   1.0000
[...]
     1.0000   1.0000   1.0000   1.0000   1.0000   1.0000   1.0000   1.0000
     1.0000   1.0000   1.0000   1.0000   1.0000   1.0000   1.0000   1.0000
     1.0000   1.0000   1.0000   1.0000   1.0000   1.0000   1.0000   1.0000
     1.0000   1.0000   1.0000   1.0000   1.0000   1.0000   1.0000   1.0000
     1.0000   1.0000   1.0000   1.0000   1.0000   1.0000   1.0000   0.5075
     0.0000   0.0000   0.0000   0.0000   0.0000   0.0000   0.0000   0.0000
     0.0000   0.0000

          k = 0.2887-0.5000 0.0000 (137556 PWs)   bands (ev):

   -58.0992 -58.0000 -57.9987 -34.5427 -34.3234 -34.3087 -34.3055 -34.1838
   -34.1768 -33.9423 -33.8097 -33.7804 -19.5714 -18.9105 -18.7095 -18.4924
   -18.4009 -18.2754 -18.0850 -17.9921  -8.8780  -8.8155  -8.4225  -8.3450
    -8.1067  -8.0210  -7.8583  -7.8272  -7.7376  -7.4162  -7.3763  -7.1807
    -7.1761  -6.9298  -6.7764  -6.7659  -6.5309  -6.4526  -6.0575  -6.0147
    -5.8581  -5.6978  -5.5628  -5.0624  -4.0586  -3.2864  -3.1639  -2.1681
    -1.1115  -1.0072  -0.5832  -0.4561  -0.3486  -0.1354   0.1712   0.1797
     0.4474   0.7179

     occupation numbers 
     1.0000   1.0000   1.0000   1.0000   1.0000   1.0000   1.0000   1.0000
     1.0000   1.0000   1.0000   1.0000   1.0000   1.0000   1.0000   1.0000
     1.0000   1.0000   1.0000   1.0000   1.0000   1.0000   1.0000   1.0000
     1.0000   1.0000   1.0000   1.0000   1.0000   1.0000   1.0000   1.0000
     1.0000   1.0000   1.0000   1.0000   1.0000   1.0000   1.0000   1.0000
     1.0000   1.0000   1.0000   1.0000   1.0000   1.0000   1.0000   1.0822
     0.0000   0.0000   0.0000   0.0000   0.0000   0.0000   0.0000   0.0000
     0.0000   0.0000

          k =-0.0000 0.3333 0.0000 (137410 PWs)   bands (ev):

   -58.0997 -57.9995 -57.9987 -34.5526 -34.3252 -34.3173 -34.3082 -34.1804
   -34.1767 -33.9364 -33.7947 -33.7791 -19.6050 -18.9945 -18.6152 -18.4880
   -18.4034 -18.2871 -18.0496 -17.9752  -8.9651  -8.9489  -8.7255  -8.4164
    -8.2631  -8.0946  -7.9352  -7.7660  -7.6645  -7.6270  -7.2328  -7.1240
    -7.0130  -6.9015  -6.7718  -6.4472  -6.3238  -6.2927  -6.2056  -5.9701
    -5.8044  -5.5922  -5.3244  -5.0733  -3.9814  -3.2829  -3.2051  -2.0687
    -1.1796  -1.0384  -0.4406  -0.3358  -0.2398  -0.1077   0.0732   0.2026
     0.5713   0.8212

     occupation numbers 
     1.0000   1.0000   1.0000   1.0000   1.0000   1.0000   1.0000   1.0000
     1.0000   1.0000   1.0000   1.0000   1.0000   1.0000   1.0000   1.0000
     1.0000   1.0000   1.0000   1.0000   1.0000   1.0000   1.0000   1.0000
     1.0000   1.0000   1.0000   1.0000   1.0000   1.0000   1.0000   1.0000
     1.0000   1.0000   1.0000   1.0000   1.0000   1.0000   1.0000   1.0000
     1.0000   1.0000   1.0000   1.0000   1.0000   1.0000   1.0000   0.0936
     0.0000   0.0000   0.0000   0.0000   0.0000   0.0000   0.0000   0.0000
     0.0000   0.0000

          k =-0.0962 0.5000 0.0000 (137449 PWs)   bands (ev):

   -58.0992 -58.0000 -57.9987 -34.5425 -34.3216 -34.3113 -34.3055 -34.1828
   -34.1776 -33.9418 -33.8068 -33.7833 -19.5717 -18.9183 -18.6764 -18.5325
   -18.3875 -18.2669 -18.1088 -17.9751  -8.8974  -8.7501  -8.5241  -8.2856
    -8.2045  -7.9630  -7.8530  -7.7337  -7.6995  -7.5496  -7.3922  -7.2108
    -7.1225  -6.9561  -6.8251  -6.6823  -6.5204  -6.2852  -6.1411  -6.1003
    -5.8715  -5.6767  -5.5019  -5.1586  -4.0321  -3.2848  -3.1723  -2.1298
    -1.1918  -0.9473  -0.5338  -0.4179  -0.3115  -0.2001  -0.0067   0.2236
     0.5559   0.7799

     occupation numbers 
     1.0000   1.0000   1.0000   1.0000   1.0000   1.0000   1.0000   1.0000
     1.0000   1.0000   1.0000   1.0000   1.0000   1.0000   1.0000   1.0000
     1.0000   1.0000   1.0000   1.0000   1.0000   1.0000   1.0000   1.0000
     1.0000   1.0000   1.0000   1.0000   1.0000   1.0000   1.0000   1.0000
     1.0000   1.0000   1.0000   1.0000   1.0000   1.0000   1.0000   1.0000
     1.0000   1.0000   1.0000   1.0000   1.0000   1.0000   1.0000   0.8230
     0.0000   0.0000   0.0000   0.0000   0.0000   0.0000   0.0000   0.0000
     0.0000   0.0000

          k =-0.0000 0.6667 0.0000 (137418 PWs)   bands (ev):

   -58.0991 -58.0002 -57.9987 -34.5388 -34.3164 -34.3139 -34.3046 -34.1824
   -34.1791 -33.9432 -33.8081 -33.7877 -19.5610 -18.8839 -18.6712 -18.5901
   -18.3759 -18.2456 -18.1508 -17.9651  -8.8904  -8.5961  -8.4914  -8.2570
    -8.2139  -7.9129  -7.8680  -7.7483  -7.5609  -7.4909  -7.4577  -7.2342
    -7.1190  -7.0960  -6.9733  -6.6267  -6.5035  -6.3175  -6.2983  -6.1181
    -5.8336  -5.6238  -5.5380  -5.2986  -4.0251  -3.2777  -3.1816  -2.1165
    -1.2359  -0.8914  -0.4479  -0.4256  -0.3703  -0.2422  -0.1742   0.2657
     0.6978   0.7345

     occupation numbers 
     1.0000   1.0000   1.0000   1.0000   1.0000   1.0000   1.0000   1.0000
     1.0000   1.0000   1.0000   1.0000   1.0000   1.0000   1.0000   1.0000
     1.0000   1.0000   1.0000   1.0000   1.0000   1.0000   1.0000   1.0000
     1.0000   1.0000   1.0000   1.0000   1.0000   1.0000   1.0000   1.0000
     1.0000   1.0000   1.0000   1.0000   1.0000   1.0000   1.0000   1.0000
     1.0000   1.0000   1.0000   1.0000   1.0000   1.0000   1.0000   0.6335
     0.0000   0.0000   0.0000   0.0000   0.0000   0.0000   0.0000   0.0000
     0.0000   0.0000

     the Fermi energy is    -2.1006 ev

!    total energy              =    -585.08253836 Ry
     estimated scf accuracy    <          3.0E-13 Ry
     smearing contrib. (-TS)   =      -0.00037882 Ry
     internal energy E=F+TS    =    -585.08215954 Ry

     convergence has been achieved in   3 iterations

     Forces acting on atoms (cartesian axes, Ry/au):

     atom    1 type  1   force =    -0.00000003   -0.00000000    0.00000009
     atom    2 type  1   force =     0.00000002   -0.00000003    0.00000009
     atom    3 type  1   force =     0.00000002    0.00000003    0.00000009
     atom    4 type  2   force =     0.00000032    0.00000000    0.00000029
     atom    5 type  2   force =    -0.00000016    0.00000028    0.00000029
     atom    6 type  2   force =    -0.00000016   -0.00000028    0.00000029
     atom    7 type  2   force =     0.00000000   -0.00000000    0.00000056
     atom    8 type  2   force =    -0.00000006    0.00000000   -0.00000063
     atom    9 type  2   force =     0.00000003   -0.00000006   -0.00000063
     atom   10 type  2   force =     0.00000003    0.00000006   -0.00000063
     atom   11 type  2   force =     0.00000000    0.00000000    0.00000018
     The non-local contrib.  to forces
     atom    1 type  1   force =     0.23601793    0.00000000    0.03862685
     atom    2 type  1   force =    -0.11800896    0.20439752    0.03862685
     atom    3 type  1   force =    -0.11800896   -0.20439752    0.03862685
     atom    4 type  2   force =    -0.19094025    0.00000000    0.28955151
     atom    5 type  2   force =     0.09547013   -0.16535911    0.28955151
     atom    6 type  2   force =     0.09547013    0.16535911    0.28955151
     atom    7 type  2   force =    -0.00000000   -0.00000000    0.35328987
     atom    8 type  2   force =     0.17595267   -0.00000000   -0.27591427
     atom    9 type  2   force =    -0.08797633    0.15237948   -0.27591427
     atom   10 type  2   force =    -0.08797633   -0.15237948   -0.27591427
     atom   11 type  2   force =    -0.00000000    0.00000000   -0.44001686
     The ionic contribution  to forces
     atom    1 type  1   force =    -9.14654937    0.00000000    1.24068822
     atom    2 type  1   force =     4.57327469   -7.92114412    1.24068822
     atom    3 type  1   force =     4.57327469    7.92114412    1.24068822
     atom    4 type  2   force =     6.42517785   -0.00000000  -35.17957113
     atom    5 type  2   force =    -3.21258892    5.56436725  -35.17957112
     atom    6 type  2   force =    -3.21258892   -5.56436725  -35.17957112
     atom    7 type  2   force =    -0.00000000   -0.00000000  -30.03410250
     atom    8 type  2   force =    -3.56908357   -0.00000000   29.69327418
     atom    9 type  2   force =     1.78454179   -3.09091704   29.69327418
     atom   10 type  2   force =     1.78454179    3.09091704   29.69327418
     atom   11 type  2   force =     0.00000000    0.00000000   42.77092867
     The local contribution  to forces
     atom    1 type  1   force =     8.90836177   -0.00000000   -1.27925713
     atom    2 type  1   force =    -4.45418094    7.71486763   -1.27925713
     atom    3 type  1   force =    -4.45418094   -7.71486763   -1.27925713
     atom    4 type  2   force =    -6.23519735    0.00000000   34.88846687
     atom    5 type  2   force =     3.11759868   -5.39983931   34.88846687
     atom    6 type  2   force =     3.11759868    5.39983931   34.88846687
     atom    7 type  2   force =    -0.00000001   -0.00000000   29.68088709
     atom    8 type  2   force =     3.39362416    0.00000000  -29.41621576
     atom    9 type  2   force =    -1.69681209    2.93896474  -29.41621576
     atom   10 type  2   force =    -1.69681209   -2.93896474  -29.41621576
     atom   11 type  2   force =     0.00000000   -0.00000000  -42.32994108
     The core correction contribution to forces
     atom    1 type  1   force =     0.00000000    0.00000000    0.00000000
     atom    2 type  1   force =     0.00000000    0.00000000    0.00000000
     atom    3 type  1   force =     0.00000000    0.00000000    0.00000000
     atom    4 type  2   force =     0.00000000    0.00000000    0.00000000
     atom    5 type  2   force =     0.00000000    0.00000000    0.00000000
     atom    6 type  2   force =     0.00000000    0.00000000    0.00000000
     atom    7 type  2   force =     0.00000000    0.00000000    0.00000000
     atom    8 type  2   force =     0.00000000    0.00000000    0.00000000
     atom    9 type  2   force =     0.00000000    0.00000000    0.00000000
     atom   10 type  2   force =     0.00000000    0.00000000    0.00000000
     atom   11 type  2   force =     0.00000000    0.00000000    0.00000000
     The Hubbard contrib.    to forces
     atom    1 type  1   force =     0.00000000    0.00000000    0.00000000
     atom    2 type  1   force =     0.00000000    0.00000000    0.00000000
     atom    3 type  1   force =     0.00000000    0.00000000    0.00000000
     atom    4 type  2   force =     0.00000000    0.00000000    0.00000000
     atom    5 type  2   force =     0.00000000    0.00000000    0.00000000
     atom    6 type  2   force =     0.00000000    0.00000000    0.00000000
     atom    7 type  2   force =     0.00000000    0.00000000    0.00000000
     atom    8 type  2   force =     0.00000000    0.00000000    0.00000000
     atom    9 type  2   force =     0.00000000    0.00000000    0.00000000
     atom   10 type  2   force =     0.00000000    0.00000000    0.00000000
     atom   11 type  2   force =     0.00000000    0.00000000    0.00000000
     The SCF correction term to forces
     atom    1 type  1   force =    -0.00000022    0.00000000   -0.00000151
     atom    2 type  1   force =     0.00000011   -0.00000019   -0.00000151
     atom    3 type  1   force =     0.00000011    0.00000019   -0.00000151
     atom    4 type  2   force =    -0.00000004    0.00000000   -0.00000041
     atom    5 type  2   force =     0.00000002   -0.00000003   -0.00000041
     atom    6 type  2   force =     0.00000002    0.00000003   -0.00000041
     atom    7 type  2   force =    -0.00000000   -0.00000000   -0.00000024
     atom    8 type  2   force =     0.00000007    0.00000000   -0.00000067
     atom    9 type  2   force =    -0.00000004    0.00000006   -0.00000067
     atom   10 type  2   force =    -0.00000004   -0.00000006   -0.00000067
     atom   11 type  2   force =    -0.00000000   -0.00000000   -0.00000045

     DFT-D3 dispersion contribution to forces:
     atom    1 type  1   force =     0.00216983   -0.00000000   -0.00005773
     atom    2 type  1   force =    -0.00108492    0.00187913   -0.00005773
     atom    3 type  1   force =    -0.00108492   -0.00187913   -0.00005773
     atom    4 type  2   force =     0.00096012    0.00000000    0.00155207
     atom    5 type  2   force =    -0.00048006    0.00083149    0.00155207
     atom    6 type  2   force =    -0.00048006   -0.00083149    0.00155207
     atom    7 type  2   force =    -0.00000000   -0.00000000   -0.00007504
     atom    8 type  2   force =    -0.00049340   -0.00000000   -0.00114549
     atom    9 type  2   force =     0.00024670   -0.00042729   -0.00114549
     atom   10 type  2   force =     0.00024670    0.00042729   -0.00114549
     atom   11 type  2   force =     0.00000000    0.00000000   -0.00097149

     Total force =     0.000001     Total SCF correction =     0.000003

     DFT-D3 dispersion Force =     0.005454
     SCF correction compared to forces is large: reduce conv_thr to get better values


     Computing stress (Cartesian axis) and pressure

          total   stress  (Ry/bohr**3)                   (kbar)     P=        0.89
   0.00000927   0.00000000   0.00000000            1.36        0.00        0.00
   0.00000000   0.00000927   0.00000000            0.00        1.36        0.00
   0.00000000   0.00000000  -0.00000038            0.00        0.00       -0.06

     kinetic stress (kbar)   2344.28     -0.00      0.00
                                0.00   2344.28      0.00
                                0.00      0.00   2321.62

     local   stress (kbar)-105345.42      0.00      0.00
                                0.00-105345.42     -0.00
                                0.00     -0.00 101399.14

     nonloc. stress (kbar)   2131.54     -0.00      0.00
                               -0.00   2131.54      0.00
                                0.00     -0.00   2138.35

     hartree stress (kbar)  51677.64     -0.00     -0.00
                               -0.00  51677.64      0.00
                               -0.00      0.00 -50221.51

     exc-cor stress (kbar)   -496.01      0.00     -0.00
                                0.00   -496.01      0.00
                               -0.00      0.00   -497.15

     corecor stress (kbar)      0.00      0.00      0.00
                                0.00      0.00      0.00
                                0.00      0.00      0.00

     ewald   stress (kbar)  49691.25     -0.00     -0.00
                               -0.00  49691.25     -0.00
                               -0.00     -0.00 -55140.01

     hubbard stress (kbar)      0.00      0.00      0.00
                                0.00      0.00      0.00
                                0.00      0.00      0.00

     DFT-D   stress (kbar)     -1.91     -0.00     -0.00
                               -0.00     -1.91      0.00
                               -0.00      0.00     -0.48

     XDM     stress (kbar)      0.00      0.00      0.00
                                0.00      0.00      0.00
                                0.00      0.00      0.00

     dft-nl  stress (kbar)      0.00      0.00      0.00
                                0.00      0.00      0.00
                                0.00      0.00      0.00

     TS-vdW  stress (kbar)      0.00      0.00      0.00
                                0.00      0.00      0.00
                                0.00      0.00      0.00

     MDB     stress (kbar)      0.00      0.00      0.00
                                0.00      0.00      0.00
                                0.00      0.00      0.00

     3D-RISM stress (kbar)      0.00      0.00      0.00
                                0.00      0.00      0.00
                                0.00      0.00      0.00


     Damped Dynamics: convergence achieved in  24 steps

     End of damped dynamics calculation

     Final energy =    -585.0825383618 Ry

Begin final coordinates
     new unit-cell volume =   8140.04187 a.u.^3 (  1206.22976 Ang^3 )
     density =      0.77414 g/cm^3

CELL_PARAMETERS (angstrom)
   5.833355223   3.367889208   0.000000000
  -5.833355223   3.367889208   0.000000000
   0.000000000   0.000000000  30.698971239

ATOMIC_POSITIONS (crystal)
Nb              -0.1387052481        0.1387052481        0.1018286942
Nb              -0.1387052481       -0.2774104962        0.1018286942
Nb               0.2774104962        0.1387052481        0.1018286942
Cl               0.1645703946       -0.1645703946        0.0477567244
Cl               0.1645703946        0.3291407893        0.0477567244
Cl              -0.3291407893       -0.1645703946        0.0477567244
Cl              -0.3333333333        0.3333333333        0.0572528357
Cl               0.4982847258       -0.4982847258        0.1460204646
Cl               0.4982847258       -0.0034305485        0.1460204646
Cl               0.0034305485       -0.4982847258        0.1460204646
Cl               0.0000000000       -0.0000000000        0.1620079760
End final coordinates



     Writing all to output data dir ./out/Nb3Cl8.save/ :
     XML data file, charge density, pseudopotentials, collected wavefunctions

     init_run     :      0.78s CPU      0.90s WALL (       1 calls)
     electrons    :    189.93s CPU    260.16s WALL (      25 calls)
     update_pot   :    317.91s CPU    397.35s WALL (      24 calls)
     forces       :      4.25s CPU      5.23s WALL (      25 calls)
     force_dftd3  :      0.17s CPU      0.18s WALL (      25 calls)
     stress       :     24.30s CPU     25.46s WALL (      25 calls)
     stres_dftd3  :      0.10s CPU      0.10s WALL (      25 calls)

     Called by init_run:
     wfcinit      :      0.19s CPU      0.22s WALL (       1 calls)
     wfcinit:wfcr :      0.16s CPU      0.18s WALL (       1 calls)
     potinit      :      0.06s CPU      0.09s WALL (       1 calls)
     hinit0       :      0.13s CPU      0.17s WALL (       1 calls)

     Called by electrons:
     c_bands      :    146.73s CPU    156.22s WALL (     201 calls)
     sum_band     :     19.94s CPU     21.98s WALL (     201 calls)
     v_of_rho     :     13.39s CPU     14.37s WALL (     201 calls)
     v_h          :      1.08s CPU      1.23s WALL (     201 calls)
     v_xc         :     12.31s CPU     13.14s WALL (     201 calls)
     mix_rho      :      3.50s CPU      3.65s WALL (     201 calls)
     energy_dftd3 :      0.05s CPU      0.05s WALL (      25 calls)

     Called by c_bands:
     init_us_2    :      5.06s CPU      5.17s WALL (     403 calls)
     cegterg      :    120.21s CPU    128.99s WALL (     201 calls)

     Called by sum_band:
     sum_band:wei :      0.41s CPU      0.41s WALL (     201 calls)
     sum_band:loo :     16.45s CPU     17.84s WALL (     201 calls)
     sum_band:buf :      0.00s CPU      0.00s WALL (     201 calls)
     sum_band:ini :      2.77s CPU      2.82s WALL (     201 calls)

     Called by *egterg:
     cdiaghg      :      3.59s CPU      3.63s WALL (     953 calls)
     cegterg:over :      9.21s CPU      9.34s WALL (     801 calls)
     cegterg:upda :      6.78s CPU      6.89s WALL (     801 calls)
     cegterg:last :      8.05s CPU      8.16s WALL (     423 calls)
     h_psi        :     87.14s CPU     95.41s WALL (    1003 calls)
     g_psi        :      0.40s CPU      0.41s WALL (     801 calls)

     Called by h_psi:
     h_psi:calbec :      8.35s CPU      8.52s WALL (    1003 calls)
     vloc_psi     :     70.19s CPU     77.81s WALL (    1003 calls)
     add_vuspsi   :      6.85s CPU      6.95s WALL (    1003 calls)

     General routines
     calbec       :     33.81s CPU     34.18s WALL (    1151 calls)
     fft          :      5.92s CPU      6.90s WALL (    2234 calls)
     ffts         :      0.74s CPU      0.90s WALL (     201 calls)
     fftw         :     77.03s CPU     85.53s WALL (   75086 calls)
     davcio       :      0.01s CPU      1.61s WALL (      92 calls)

     Parallel routines

     PWSCF        :    566.15s CPU    742.89s WALL


   This run was terminated on:  23:28:51   7May2025            

=------------------------------------------------------------------------------=
   JOB DONE.
=------------------------------------------------------------------------------=
