
     Program PWSCF v.7.3.1 starts on  5May2025 at 12:17:54 

     This program is part of the open-source Quantum ESPRESSO suite
     for quantum simulation of materials; please cite
         "P. Giannozzi et al., J. Phys.:Condens. Matter 21 395502 (2009);
         "P. Giannozzi et al., J. Phys.:Condens. Matter 29 465901 (2017);
         "P. Giannozzi et al., J. Chem. Phys. 152 154105 (2020);
          URL http://www.quantum-espresso.org", 
     in publications or presentations arising from this work. More details at
     http://www.quantum-espresso.org/quote

     Parallel version (MPI & OpenMP), running on     384 processor cores
     Number of MPI processes:               384
     Threads/MPI process:                     1

     MPI processes distributed on     2 nodes
     342607 MiB available memory on the printing compute node when the environment starts

     Waiting for input...
     Reading input from standard input
Warning: card &CELL ignored
Warning: card / ignored
Warning: card &FCP ignored
Warning: card / ignored
Warning: card &RISM ignored
Warning: card / ignored

     Current dimensions of program PWSCF are:
     Max number of different atomic species (ntypx) = 10
     Max number of k-points (npk) =  40000
     Max angular momentum in pseudopotentials (lmaxx) =  4

     File ./out/Nb3Cl8.update deleted, as requested

     File ./out/Nb3Cl8.md deleted, as requested

     File ./out/Nb3Cl8.bfgs deleted, as requested

     IMPORTANT: XC functional enforced from input :
     Exchange-correlation= PBE
                           (   1   4   3   4   0   0   0)
     Any further DFT definition will be discarded
     Please, verify this is what you really want

     Message from routine setup:
     using ibrav=0 with symmetry is DISCOURAGED, use correct ibrav instead
     Message from routine setup:
     Dynamics, you should have no symmetries

     K-points division:     npool     =      16
     R & G space division:  proc/nbgrp/npool/nimage =      24
     Subspace diagonalization in iterative solution of the eigenvalue problem:
     a serial algorithm will be used


     Parallelization info
     --------------------
     sticks:   dense  smooth     PW     G-vecs:    dense   smooth      PW
     Min         186     186     49                18329    18329    2519
     Max         188     188     50                18333    18333    2525
     Sum        4483    4483   1189               439935   439935   60539

     Using Slab Decomposition



     bravais-lattice index     =            0
     lattice parameter (alat)  =      12.7288  a.u.
     unit-cell volume          =    3256.0167 (a.u.)^3
     number of atoms/cell      =           22
     number of atomic types    =            2
     number of electrons       =       190.00
     number of Kohn-Sham states=          114
     kinetic-energy cutoff     =     100.0000  Ry
     charge density cutoff     =     400.0000  Ry
     scf convergence threshold =      1.0E-12
     mixing beta               =       0.7000
     number of iterations used =            8  plain     mixing
     energy convergence thresh.=      1.0E-04
     force convergence thresh. =      1.0E-06
     Exchange-correlation= PBE
                           (   1   4   3   4   0   0   0)
     nstep                     =           50


     celldm(1)=  12.728776  celldm(2)=   0.000000  celldm(3)=   0.000000
     celldm(4)=   0.000000  celldm(5)=   0.000000  celldm(6)=   0.000000

     crystal axes: (cart. coord. in units of alat)
               a(1) = (   0.866025   0.500000   0.000000 )  
               a(2) = (  -0.866025   0.500000   0.000000 )  
               a(3) = (  -0.577350   0.000000   1.823039 )  

     reciprocal axes: (cart. coord. in units 2 pi/alat)
               b(1) = (  0.577350  1.000000  0.182845 )  
               b(2) = ( -0.577350  1.000000 -0.182845 )  
               b(3) = (  0.000000 -0.000000  0.548535 )  


     PseudoPot. # 1 for Nb read from file:
     /scratch-shared/mroesner/Nb3X8_cDFPT/pp/Nb_ONCV_PBE-1.2.upf
     MD5 check sum: 2c750ac0b6910ff4cf0ab5f6c4124a64
     Pseudo is Norm-conserving, Zval = 13.0
     Generated using ONCVPSP code by D. R. Hamann
     Using radial grid of  602 points,  6 beta functions with: 
                l(1) =   0
                l(2) =   0
                l(3) =   1
                l(4) =   1
                l(5) =   2
                l(6) =   2

     PseudoPot. # 2 for Cl read from file:
     /scratch-shared/mroesner/Nb3X8_cDFPT/pp/Cl_ONCV_PBE-1.2.upf
     MD5 check sum: 0f993535b366f580ecbcdacce103c843
     Pseudo is Norm-conserving, Zval =  7.0
     Generated using ONCVPSP code by D. R. Hamann
     Using radial grid of  602 points,  4 beta functions with: 
                l(1) =   0
                l(2) =   0
                l(3) =   1
                l(4) =   1

     atomic species   valence    mass     pseudopotential
     Nb               13.00    92.90637     Nb( 1.00)
     Cl                7.00    35.45270     Cl( 1.00)

     12 Sym. Ops., with inversion, found


                                    s                        frac. trans.

      isym =  1     identity                                     

 cryst.   s( 1) = (     1          0          0      )
                  (     0          1          0      )
                  (     0          0          1      )

 cart.    s( 1) = (  1.0000000  0.0000000  0.0000000 )
                  (  0.0000000  1.0000000  0.0000000 )
                  (  0.0000000  0.0000000  1.0000000 )


      isym =  2     180 deg rotation - cart. axis [0,1,0]        

 cryst.   s( 2) = (     0          1          0      )
                  (     1          0          0      )
                  (     0          0         -1      )

 cart.    s( 2) = ( -1.0000000  0.0000000 -0.0000000 )
                  (  0.0000000  1.0000000  0.0000000 )
                  (  0.0000000  0.0000000 -1.0000000 )


      isym =  3     120 deg rotation - cryst. axis [0,0,1]       

 cryst.   s( 3) = (     0          1          0      )
                  (    -1         -1          0      )
                  (     0         -1          1      )

 cart.    s( 3) = ( -0.5000000 -0.8660254 -0.0000000 )
                  (  0.8660254 -0.5000000  0.0000000 )
                  (  0.0000000  0.0000000  1.0000000 )


      isym =  4     120 deg rotation - cryst. axis [0,0,-1]      

 cryst.   s( 4) = (    -1         -1          0      )
                  (     1          0          0      )
                  (     1          0          1      )

 cart.    s( 4) = ( -0.5000000  0.8660254 -0.0000000 )
                  ( -0.8660254 -0.5000000 -0.0000000 )
                  (  0.0000000  0.0000000  1.0000000 )


      isym =  5     180 deg rotation - cryst. axis [1,-1,0]      

 cryst.   s( 5) = (    -1         -1          0      )
                  (     0          1          0      )
                  (     0          1         -1      )

 cart.    s( 5) = (  0.5000000 -0.8660254  0.0000000 )
                  ( -0.8660254 -0.5000000 -0.0000000 )
                  (  0.0000000  0.0000000 -1.0000000 )


      isym =  6     180 deg rotation - cryst. axis [2,1,0]       

 cryst.   s( 6) = (     1          0          0      )
                  (    -1         -1          0      )
                  (    -1          0         -1      )

 cart.    s( 6) = (  0.5000000  0.8660254  0.0000000 )
                  (  0.8660254 -0.5000000  0.0000000 )
                  (  0.0000000  0.0000000 -1.0000000 )


      isym =  7     inversion                                    

 cryst.   s( 7) = (    -1          0          0      )
                  (     0         -1          0      )
                  (     0          0         -1      )

 cart.    s( 7) = ( -1.0000000  0.0000000 -0.0000000 )
                  (  0.0000000 -1.0000000  0.0000000 )
                  (  0.0000000  0.0000000 -1.0000000 )


      isym =  8     inv. 180 deg rotation - cart. axis [0,1,0]   

 cryst.   s( 8) = (     0         -1          0      )
                  (    -1          0          0      )
                  (     0          0          1      )

 cart.    s( 8) = (  1.0000000  0.0000000  0.0000000 )
                  (  0.0000000 -1.0000000  0.0000000 )
                  (  0.0000000  0.0000000  1.0000000 )


      isym =  9     inv. 120 deg rotation - cryst. axis [0,0,1]  

 cryst.   s( 9) = (     0         -1          0      )
                  (     1          1          0      )
                  (     0          1         -1      )

 cart.    s( 9) = (  0.5000000  0.8660254  0.0000000 )
                  ( -0.8660254  0.5000000 -0.0000000 )
                  (  0.0000000  0.0000000 -1.0000000 )


      isym = 10     inv. 120 deg rotation - cryst. axis [0,0,-1] 

 cryst.   s(10) = (     1          1          0      )
                  (    -1          0          0      )
                  (    -1          0         -1      )

 cart.    s(10) = (  0.5000000 -0.8660254  0.0000000 )
                  (  0.8660254  0.5000000  0.0000000 )
                  (  0.0000000  0.0000000 -1.0000000 )


      isym = 11     inv. 180 deg rotation - cryst. axis [1,-1,0] 

 cryst.   s(11) = (     1          1          0      )
                  (     0         -1          0      )
                  (     0         -1          1      )

 cart.    s(11) = ( -0.5000000  0.8660254 -0.0000000 )
                  (  0.8660254  0.5000000  0.0000000 )
                  (  0.0000000  0.0000000  1.0000000 )


      isym = 12     inv. 180 deg rotation - cryst. axis [2,1,0]  

 cryst.   s(12) = (    -1          0          0      )
                  (     1          1          0      )
                  (     1          0          1      )

 cart.    s(12) = ( -0.5000000 -0.8660254 -0.0000000 )
                  ( -0.8660254  0.5000000 -0.0000000 )
                  (  0.0000000  0.0000000  1.0000000 )


   Cartesian axes

     site n.     atom                  positions (alat units)
         1        Nb     tau(   1) = (   0.2397774   0.0000000  -0.4602551  )
         2        Nb     tau(   2) = (  -0.1198887   0.2076533  -0.4602551  )
         3        Nb     tau(   3) = (  -0.1198887  -0.2076533  -0.4602551  )
         4        Nb     tau(   4) = (  -0.2397774   0.0000000   0.4602551  )
         5        Nb     tau(   5) = (   0.1198887  -0.2076533   0.4602551  )
         6        Nb     tau(   6) = (   0.1198887   0.2076533   0.4602551  )
         7        Cl     tau(   7) = (   0.0000000   0.0000000  -0.7326466  )
         8        Cl     tau(   8) = (   0.8695054   0.0000000  -0.6624855  )
         9        Cl     tau(   9) = (   0.4312727   0.2530137  -0.6624855  )
        10        Cl     tau(  10) = (   0.4312727  -0.2530137  -0.6624855  )
        11        Cl     tau(  11) = (   0.5773503   0.0000000  -0.2579731  )
        12        Cl     tau(  12) = (  -0.2865795   0.0000000  -0.2167952  )
        13        Cl     tau(  13) = (   0.1432898  -0.2481851  -0.2167952  )
        14        Cl     tau(  14) = (   0.1432898   0.2481851  -0.2167952  )
        15        Cl     tau(  15) = (   0.2865795   0.0000000   0.2167952  )
        16        Cl     tau(  16) = (  -0.1432898   0.2481851   0.2167952  )
        17        Cl     tau(  17) = (  -0.1432898  -0.2481851   0.2167952  )
        18        Cl     tau(  18) = (  -0.5773503   0.0000000   0.2579731  )
        19        Cl     tau(  19) = (  -0.8695054   0.0000000   0.6624855  )
        20        Cl     tau(  20) = (  -0.4312727  -0.2530137   0.6624855  )
        21        Cl     tau(  21) = (  -0.4312727   0.2530137   0.6624855  )
        22        Cl     tau(  22) = (  -0.0000000   0.0000000   0.7326466  )

     --------------------------------------------
     DFT-D3 Dispersion Correction (no 3-body):
     --------------------------------------------
       Reference C6 values for interpolation: 

         atom   Coordination number   C6
         Cl         0.000           184.69
         Cl         0.997           180.80
         Nb         0.000          2950.50
         Nb         1.954          1161.16
         Nb         2.922           857.79

       Values used:

         atom   Coordination number  R0_AB[au]  C6      C8
         Nb         8.273            3.647    857.79 111659.18
         Nb         8.273            3.647    857.79 111659.18
         Nb         8.273            3.647    857.79 111659.18
         Nb         8.273            3.647    857.79 111659.18
         Nb         8.273            3.647    857.79 111659.18
         Nb         8.273            3.647    857.79 111659.18
         Cl         3.219            2.933    180.80   7543.49
         Cl         2.296            2.933    180.80   7543.50
         Cl         2.296            2.933    180.80   7543.50
         Cl         2.296            2.933    180.80   7543.50
         Cl         3.113            2.933    180.80   7543.49
         Cl         2.311            2.933    180.80   7543.50
         Cl         2.311            2.933    180.80   7543.50
         Cl         2.311            2.933    180.80   7543.50
         Cl         2.311            2.933    180.80   7543.50
         Cl         2.311            2.933    180.80   7543.50
         Cl         2.311            2.933    180.80   7543.50
         Cl         3.113            2.933    180.80   7543.49
         Cl         2.296            2.933    180.80   7543.50
         Cl         2.296            2.933    180.80   7543.50
         Cl         2.296            2.933    180.80   7543.50
         Cl         3.219            2.933    180.80   7543.49

         Molecular C6 ( Ry / a.u.^6 ) =    150899.93


   Crystallographic axes

     site n.     atom                  positions (cryst. coord.)
         1        Nb     tau(   1) = (  0.0542803 -0.0542803 -0.2524658  )
         2        Nb     tau(   2) = (  0.0542803  0.3610263 -0.2524658  )
         3        Nb     tau(   3) = ( -0.3610263 -0.0542803 -0.2524658  )
         4        Nb     tau(   4) = ( -0.0542803  0.0542803  0.2524658  )
         5        Nb     tau(   5) = ( -0.0542803 -0.3610263  0.2524658  )
         6        Nb     tau(   6) = (  0.3610263  0.0542803  0.2524658  )
         7        Cl     tau(   7) = ( -0.1339607  0.1339607 -0.4018820  )
         8        Cl     tau(   8) = (  0.3808771 -0.3808771 -0.3633962  )
         9        Cl     tau(   9) = (  0.3808771  0.1251504 -0.3633962  )
        10        Cl     tau(  10) = ( -0.1251504 -0.3808771 -0.3633962  )
        11        Cl     tau(  11) = (  0.2861643 -0.2861643 -0.1415072  )
        12        Cl     tau(  12) = ( -0.2050966  0.2050966 -0.1189196  )
        13        Cl     tau(  13) = ( -0.2050966 -0.2912736 -0.1189196  )
        14        Cl     tau(  14) = (  0.2912736  0.2050966 -0.1189196  )
        15        Cl     tau(  15) = (  0.2050966 -0.2050966  0.1189196  )
        16        Cl     tau(  16) = (  0.2050966  0.2912736  0.1189196  )
        17        Cl     tau(  17) = ( -0.2912736 -0.2050966  0.1189196  )
        18        Cl     tau(  18) = ( -0.2861643  0.2861643  0.1415072  )
        19        Cl     tau(  19) = ( -0.3808771  0.3808771  0.3633962  )
        20        Cl     tau(  20) = ( -0.3808771 -0.1251504  0.3633962  )
        21        Cl     tau(  21) = (  0.1251504  0.3808771  0.3633962  )
        22        Cl     tau(  22) = (  0.1339607 -0.1339607  0.4018820  )

     number of k points=    32  Marzari-Vanderbilt smearing, width (Ry)=  0.0037
                       cart. coord. in units 2pi/alat
        k(    1) = (   0.0000000   0.0000000   0.0000000), wk =   0.0092593
        k(    2) = (   0.0000000   0.0000000   0.0914224), wk =   0.0185185
        k(    3) = (   0.0000000   0.0000000   0.1828448), wk =   0.0185185
        k(    4) = (   0.0000000   0.0000000  -0.2742673), wk =   0.0092593
        k(    5) = (  -0.0962250   0.1666667  -0.0304741), wk =   0.0555556
        k(    6) = (  -0.0962250   0.1666667   0.0609483), wk =   0.0555556
        k(    7) = (  -0.0962250   0.1666667   0.1523707), wk =   0.0555556
        k(    8) = (  -0.0962250   0.1666667  -0.3047414), wk =   0.0555556
        k(    9) = (  -0.0962250   0.1666667  -0.2133190), wk =   0.0555556
        k(   10) = (  -0.0962250   0.1666667  -0.1218966), wk =   0.0555556
        k(   11) = (  -0.1924501   0.3333333  -0.0609483), wk =   0.0555556
        k(   12) = (  -0.1924501   0.3333333   0.0304741), wk =   0.0555556
        k(   13) = (  -0.1924501   0.3333333   0.1218966), wk =   0.0555556
        k(   14) = (  -0.1924501   0.3333333  -0.3352156), wk =   0.0555556
        k(   15) = (  -0.1924501   0.3333333  -0.2437931), wk =   0.0555556
        k(   16) = (  -0.1924501   0.3333333  -0.1523707), wk =   0.0555556
        k(   17) = (   0.2886751  -0.5000000   0.0914224), wk =   0.0277778
        k(   18) = (   0.2886751  -0.5000000   0.1828448), wk =   0.0555556
        k(   19) = (   0.2886751  -0.5000000   0.2742673), wk =   0.0555556
        k(   20) = (   0.2886751  -0.5000000  -0.1828448), wk =   0.0277778
        k(   21) = (  -0.0000000   0.3333333   0.0000000), wk =   0.0555556
        k(   22) = (  -0.0000000   0.3333333   0.0914224), wk =   0.1111111
        k(   23) = (  -0.0000000   0.3333333   0.1828448), wk =   0.1111111
        k(   24) = (  -0.0000000   0.3333333  -0.2742673), wk =   0.0555556
        k(   25) = (  -0.0962250   0.5000000  -0.0304741), wk =   0.1111111
        k(   26) = (  -0.0962250   0.5000000   0.0609483), wk =   0.1111111
        k(   27) = (  -0.0962250   0.5000000   0.1523707), wk =   0.1111111
        k(   28) = (  -0.0962250   0.5000000  -0.3047414), wk =   0.1111111
        k(   29) = (  -0.0962250   0.5000000  -0.2133190), wk =   0.1111111
        k(   30) = (  -0.0962250   0.5000000  -0.1218966), wk =   0.1111111
        k(   31) = (  -0.0000000   0.6666667   0.0000000), wk =   0.0555556
        k(   32) = (  -0.0000000   0.6666667   0.0914224), wk =   0.0555556

                       cryst. coord.
        k(    1) = (   0.0000000   0.0000000   0.0000000), wk =   0.0092593
        k(    2) = (   0.0000000   0.0000000   0.1666667), wk =   0.0185185
        k(    3) = (   0.0000000   0.0000000   0.3333333), wk =   0.0185185
        k(    4) = (   0.0000000   0.0000000  -0.5000000), wk =   0.0092593
        k(    5) = (   0.0000000   0.1666667  -0.0000000), wk =   0.0555556
        k(    6) = (   0.0000000   0.1666667   0.1666667), wk =   0.0555556
        k(    7) = (   0.0000000   0.1666667   0.3333333), wk =   0.0555556
        k(    8) = (   0.0000000   0.1666667  -0.5000000), wk =   0.0555556
        k(    9) = (   0.0000000   0.1666667  -0.3333333), wk =   0.0555556
        k(   10) = (   0.0000000   0.1666667  -0.1666667), wk =   0.0555556
        k(   11) = (   0.0000000   0.3333333  -0.0000000), wk =   0.0555556
        k(   12) = (   0.0000000   0.3333333   0.1666667), wk =   0.0555556
        k(   13) = (   0.0000000   0.3333333   0.3333333), wk =   0.0555556
        k(   14) = (   0.0000000   0.3333333  -0.5000000), wk =   0.0555556
        k(   15) = (   0.0000000   0.3333333  -0.3333333), wk =   0.0555556
        k(   16) = (   0.0000000   0.3333333  -0.1666667), wk =   0.0555556
        k(   17) = (  -0.0000000  -0.5000000   0.0000000), wk =   0.0277778
        k(   18) = (  -0.0000000  -0.5000000   0.1666667), wk =   0.0555556
        k(   19) = (  -0.0000000  -0.5000000   0.3333333), wk =   0.0555556
        k(   20) = (  -0.0000000  -0.5000000  -0.5000000), wk =   0.0277778
        k(   21) = (   0.1666667   0.1666667   0.0000000), wk =   0.0555556
        k(   22) = (   0.1666667   0.1666667   0.1666667), wk =   0.1111111
        k(   23) = (   0.1666667   0.1666667   0.3333333), wk =   0.1111111
        k(   24) = (   0.1666667   0.1666667  -0.5000000), wk =   0.0555556
        k(   25) = (   0.1666667   0.3333333  -0.0000000), wk =   0.1111111
        k(   26) = (   0.1666667   0.3333333   0.1666667), wk =   0.1111111
        k(   27) = (   0.1666667   0.3333333   0.3333333), wk =   0.1111111
        k(   28) = (   0.1666667   0.3333333  -0.5000000), wk =   0.1111111
        k(   29) = (   0.1666667   0.3333333  -0.3333333), wk =   0.1111111
        k(   30) = (   0.1666667   0.3333333  -0.1666667), wk =   0.1111111
        k(   31) = (   0.3333333   0.3333333   0.0000000), wk =   0.0555556
        k(   32) = (   0.3333333   0.3333333   0.1666667), wk =   0.0555556

     Dense  grid:   439935 G-vectors     FFT dimensions: (  81,  81, 160)

     Dynamical RAM for                 wfc:       3.99 MB

     Dynamical RAM for     wfc (w. buffer):      11.96 MB

     Dynamical RAM for           str. fact:       0.56 MB

     Dynamical RAM for           local pot:       0.00 MB

     Dynamical RAM for          nlocal pot:       8.25 MB

     Dynamical RAM for                qrad:       3.21 MB

     Dynamical RAM for          rho,v,vnew:       1.89 MB

     Dynamical RAM for               rhoin:       0.63 MB

     Dynamical RAM for            rho*nmix:       4.48 MB

     Dynamical RAM for           G-vectors:       1.19 MB

     Dynamical RAM for          h,s,v(r/c):       2.38 MB

     Dynamical RAM for          <psi|beta>:       0.41 MB

     Dynamical RAM for                 psi:       7.97 MB

     Dynamical RAM for                hpsi:       7.97 MB

     Dynamical RAM for      wfcinit/wfcrot:       8.27 MB

     Estimated static dynamical RAM per process >      30.28 MB

     Estimated max dynamical RAM per process >      53.48 MB

     Estimated total dynamical RAM >      18.48 GB

     Initial potential from superposition of free atoms

     starting charge     189.2322, renormalised to     190.0000
     Starting wfcs are random

     total cpu time spent up to now is        3.1 secs

     per-process dynamical memory:   164.1 Mb

     Self-consistent Calculation

     iteration #  1     ecut=   100.00 Ry     beta= 0.70
     Davidson diagonalization with overlap

---- Real-time Memory Report at c_bands before calling an iterative solver
           234 MiB given to the printing process from OS
           160 MiB allocation reported by mallinfo(arena+hblkhd)
        333612 MiB available memory on the node where the printing process lives
------------------
     ethr =  1.00E-02,  avg # of iterations = 13.2

     Threshold (ethr) on eigenvalues was too large:
     Diagonalizing with lowered threshold

     Davidson diagonalization with overlap

---- Real-time Memory Report at c_bands before calling an iterative solver
           258 MiB given to the printing process from OS
           160 MiB allocation reported by mallinfo(arena+hblkhd)
        332751 MiB available memory on the node where the printing process lives
------------------
     ethr =  3.37E-04,  avg # of iterations = 11.6

     total cpu time spent up to now is       10.2 secs

     total energy              =   -1170.06500467 Ry
     estimated scf accuracy    <       0.62923846 Ry

     iteration #  2     ecut=   100.00 Ry     beta= 0.70
     Davidson diagonalization with overlap

---- Real-time Memory Report at c_bands before calling an iterative solver
           258 MiB given to the printing process from OS
           166 MiB allocation reported by mallinfo(arena+hblkhd)
        331927 MiB available memory on the node where the printing process lives
------------------
     ethr =  3.31E-04,  avg # of iterations =  3.3

     total cpu time spent up to now is       12.1 secs

     total energy              =   -1170.19404408 Ry
     estimated scf accuracy    <       0.28596249 Ry

     iteration #  3     ecut=   100.00 Ry     beta= 0.70
     Davidson diagonalization with overlap

---- Real-time Memory Report at c_bands before calling an iterative solver
           262 MiB given to the printing process from OS
           167 MiB allocation reported by mallinfo(arena+hblkhd)
        332009 MiB available memory on the node where the printing process lives
------------------
     ethr =  1.51E-04,  avg # of iterations =  3.2

     total cpu time spent up to now is       14.0 secs

     total energy              =   -1170.24185332 Ry
     estimated scf accuracy    <       0.11701186 Ry

     iteration #  4     ecut=   100.00 Ry     beta= 0.70
     Davidson diagonalization with overlap

---- Real-time Memory Report at c_bands before calling an iterative solver
           264 MiB given to the printing process from OS
           167 MiB allocation reported by mallinfo(arena+hblkhd)
        332051 MiB available memory on the node where the printing process lives
------------------
     ethr =  6.16E-05,  avg # of iterations =  3.8

     total cpu time spent up to now is       15.9 secs

     total energy              =   -1170.26555212 Ry
     estimated scf accuracy    <       0.02708843 Ry

     iteration #  5     ecut=   100.00 Ry     beta= 0.70
     Davidson diagonalization with overlap

---- Real-time Memory Report at c_bands before calling an iterative solver
           264 MiB given to the printing process from OS
           168 MiB allocation reported by mallinfo(arena+hblkhd)
        332045 MiB available memory on the node where the printing process lives
------------------
     ethr =  1.43E-05,  avg # of iterations =  4.6

     total cpu time spent up to now is       18.2 secs

     total energy              =   -1170.27000436 Ry
     estimated scf accuracy    <       0.00714005 Ry

     iteration #  6     ecut=   100.00 Ry     beta= 0.70
     Davidson diagonalization with overlap

---- Real-time Memory Report at c_bands before calling an iterative solver
           266 MiB given to the printing process from OS
           168 MiB allocation reported by mallinfo(arena+hblkhd)
        332032 MiB available memory on the node where the printing process lives
------------------
     ethr =  3.76E-06,  avg # of iterations =  6.9

     total cpu time spent up to now is       20.4 secs

     total energy              =   -1170.27139553 Ry
     estimated scf accuracy    <       0.00083190 Ry

     iteration #  7     ecut=   100.00 Ry     beta= 0.70
     Davidson diagonalization with overlap

---- Real-time Memory Report at c_bands before calling an iterative solver
           267 MiB given to the printing process from OS
           169 MiB allocation reported by mallinfo(arena+hblkhd)
        332038 MiB available memory on the node where the printing process lives
------------------
     ethr =  4.38E-07,  avg # of iterations =  7.6

     total cpu time spent up to now is       22.8 secs

     total energy              =   -1170.27156027 Ry
     estimated scf accuracy    <       0.00001847 Ry

     iteration #  8     ecut=   100.00 Ry     beta= 0.70
     Davidson diagonalization with overlap

---- Real-time Memory Report at c_bands before calling an iterative solver
           267 MiB given to the printing process from OS
           169 MiB allocation reported by mallinfo(arena+hblkhd)
        332020 MiB available memory on the node where the printing process lives
------------------
     ethr =  9.72E-09,  avg # of iterations = 10.5

     total cpu time spent up to now is       25.6 secs

     total energy              =   -1170.27156763 Ry
     estimated scf accuracy    <       0.00000545 Ry

     iteration #  9     ecut=   100.00 Ry     beta= 0.70
     Davidson diagonalization with overlap

---- Real-time Memory Report at c_bands before calling an iterative solver
           269 MiB given to the printing process from OS
           170 MiB allocation reported by mallinfo(arena+hblkhd)
        331997 MiB available memory on the node where the printing process lives
------------------
     ethr =  2.87E-09,  avg # of iterations =  3.5

     total cpu time spent up to now is       27.7 secs

     total energy              =   -1170.27156861 Ry
     estimated scf accuracy    <       0.00000057 Ry

     iteration # 10     ecut=   100.00 Ry     beta= 0.70
     Davidson diagonalization with overlap

---- Real-time Memory Report at c_bands before calling an iterative solver
           271 MiB given to the printing process from OS
           171 MiB allocation reported by mallinfo(arena+hblkhd)
        332020 MiB available memory on the node where the printing process lives
------------------
     ethr =  3.00E-10,  avg # of iterations =  8.6

     total cpu time spent up to now is       30.3 secs

     total energy              =   -1170.27156876 Ry
     estimated scf accuracy    <       0.00000004 Ry

     iteration # 11     ecut=   100.00 Ry     beta= 0.70
     Davidson diagonalization with overlap

---- Real-time Memory Report at c_bands before calling an iterative solver
           271 MiB given to the printing process from OS
           171 MiB allocation reported by mallinfo(arena+hblkhd)
        332027 MiB available memory on the node where the printing process lives
------------------
     c_bands:  2 eigenvalues not converged
     ethr =  1.94E-11,  avg # of iterations =  9.5

     total cpu time spent up to now is       33.2 secs

     total energy              =   -1170.27156877 Ry
     estimated scf accuracy    <          4.2E-09 Ry

     iteration # 12     ecut=   100.00 Ry     beta= 0.70
     Davidson diagonalization with overlap

---- Real-time Memory Report at c_bands before calling an iterative solver
           271 MiB given to the printing process from OS
           171 MiB allocation reported by mallinfo(arena+hblkhd)
        331942 MiB available memory on the node where the printing process lives
------------------
     c_bands:  2 eigenvalues not converged
     ethr =  2.22E-12,  avg # of iterations =  9.8

     total cpu time spent up to now is       35.9 secs

     total energy              =   -1170.27156877 Ry
     estimated scf accuracy    <          7.6E-10 Ry

     iteration # 13     ecut=   100.00 Ry     beta= 0.70
     Davidson diagonalization with overlap

---- Real-time Memory Report at c_bands before calling an iterative solver
           271 MiB given to the printing process from OS
           171 MiB allocation reported by mallinfo(arena+hblkhd)
        331941 MiB available memory on the node where the printing process lives
------------------
     c_bands:  1 eigenvalues not converged
     ethr =  4.01E-13,  avg # of iterations =  9.5

     total cpu time spent up to now is       39.0 secs

     total energy              =   -1170.27156877 Ry
     estimated scf accuracy    <          5.0E-11 Ry

     iteration # 14     ecut=   100.00 Ry     beta= 0.70
     Davidson diagonalization with overlap

---- Real-time Memory Report at c_bands before calling an iterative solver
           271 MiB given to the printing process from OS
           171 MiB allocation reported by mallinfo(arena+hblkhd)
        331954 MiB available memory on the node where the printing process lives
------------------
     c_bands:  1 eigenvalues not converged
     ethr =  1.00E-13,  avg # of iterations =  6.8

     total cpu time spent up to now is       41.4 secs

     total energy              =   -1170.27156877 Ry
     estimated scf accuracy    <          1.4E-11 Ry

     iteration # 15     ecut=   100.00 Ry     beta= 0.70
     Davidson diagonalization with overlap

---- Real-time Memory Report at c_bands before calling an iterative solver
           271 MiB given to the printing process from OS
           171 MiB allocation reported by mallinfo(arena+hblkhd)
        332050 MiB available memory on the node where the printing process lives
------------------
     ethr =  1.00E-13,  avg # of iterations =  2.8

     total cpu time spent up to now is       43.6 secs

     total energy              =   -1170.27156877 Ry
     estimated scf accuracy    <          8.5E-12 Ry

     iteration # 16     ecut=   100.00 Ry     beta= 0.70
     Davidson diagonalization with overlap

---- Real-time Memory Report at c_bands before calling an iterative solver
           271 MiB given to the printing process from OS
           171 MiB allocation reported by mallinfo(arena+hblkhd)
        332031 MiB available memory on the node where the printing process lives
------------------
     ethr =  1.00E-13,  avg # of iterations =  2.2

     total cpu time spent up to now is       45.5 secs

     End of self-consistent calculation

          k = 0.0000 0.0000 0.0000 ( 54955 PWs)   bands (ev):

   -48.0016 -48.0016 -47.8973 -47.8973 -47.8973 -47.8973 -24.4847 -24.4847
   -24.2413 -24.2413 -24.2413 -24.2413 -24.2150 -24.2148 -24.0745 -24.0745
   -24.0745 -24.0745 -23.8321 -23.8321 -23.6748 -23.6748 -23.6748 -23.6748
    -9.6439  -9.5400  -9.1101  -8.9773  -8.5430  -8.5326  -8.4847  -8.4847
    -8.3979  -8.3979  -8.2662  -8.2026  -7.9125  -7.9125  -7.8719  -7.8719
     0.7782   0.7782   0.8709   0.8709   0.9676   1.2078   1.2598   1.4377
     1.6490   1.6490   1.7735   1.8707   1.8707   2.1006   2.1125   2.2604
     2.2733   2.2733   2.5889   2.5889   2.8088   2.9168   3.0183   3.0183
     3.0919   3.0919   3.4447   3.5229   3.5405   3.5405   3.5764   3.5764
     3.6844   3.6844   3.6872   3.8232   3.9625   3.9625   3.9721   4.5201
     4.5201   4.5388   4.5958   4.5958   5.1152   5.1152   5.1263   5.1263
     6.1614   6.2916   6.7669   6.7669   6.7979   6.7979   7.9725   8.2960
     8.9032   8.9032   8.9041   8.9041   9.8508   9.8936   9.8936   9.9561
     9.9561  10.0629  10.2879  10.3047  10.3047  10.3171  10.3171  10.3682
    10.6328  10.6328

     occupation numbers 
     1.0000   1.0000   1.0000   1.0000   1.0000   1.0000   1.0000   1.0000
     1.0000   1.0000   1.0000   1.0000   1.0000   1.0000   1.0000   1.0000
     1.0000   1.0000   1.0000   1.0000   1.0000   1.0000   1.0000   1.0000
     1.0000   1.0000   1.0000   1.0000   1.0000   1.0000   1.0000   1.0000
     1.0000   1.0000   1.0000   1.0000   1.0000   1.0000   1.0000   1.0000
     1.0000   1.0000   1.0000   1.0000   1.0000   1.0000   1.0000   1.0000
     1.0000   1.0000   1.0000   1.0000   1.0000   1.0000   1.0000   1.0000
     1.0000   1.0000   1.0000   1.0000   1.0000   1.0000   1.0000   1.0000
     1.0000   1.0000   1.0000   1.0000   1.0000   1.0000   1.0000   1.0000
     1.0000   1.0000   1.0000   1.0000   1.0000   1.0000   1.0000   1.0000
     1.0000   1.0000   1.0000   1.0000   1.0000   1.0000   1.0000   1.0000
     1.0000   1.0000   1.0000   1.0000   1.0000   1.0000   1.0577   0.0000
     0.0000   0.0000   0.0000   0.0000   0.0000   0.0000   0.0000   0.0000
     0.0000   0.0000   0.0000   0.0000   0.0000   0.0000   0.0000   0.0000
     0.0000   0.0000

          k = 0.0000 0.0000 0.0914 ( 54950 PWs)   bands (ev):

   -48.0016 -48.0016 -47.8973 -47.8973 -47.8973 -47.8973 -24.4847 -24.4847
   -24.2413 -24.2413 -24.2413 -24.2413 -24.2150 -24.2148 -24.0746 -24.0745
   -24.0745 -24.0745 -23.8321 -23.8321 -23.6748 -23.6748 -23.6748 -23.6748
    -9.6396  -9.5449  -9.1161  -8.9696  -8.5461  -8.5302  -8.4844  -8.4844
    -8.3984  -8.3984  -8.2624  -8.2070  -7.9113  -7.9113  -7.8729  -7.8729
     0.7814   0.7814   0.8632   0.8632   0.9878   1.1789   1.2938   1.4403
     1.6647   1.6647   1.7133   1.8699   1.8699   2.0151   2.2161   2.2680
     2.2680   2.2745   2.5815   2.5815   2.8136   2.9106   3.0101   3.0101
     3.0898   3.0898   3.4020   3.5098   3.5098   3.5317   3.6066   3.6066
     3.7111   3.7111   3.7668   3.8324   3.9489   3.9489   3.9644   4.4857
     4.5240   4.5240   4.5939   4.5939   5.1149   5.1149   5.1264   5.1264
     6.1684   6.2850   6.7511   6.7511   6.8114   6.8114   7.9969   8.2785
     8.9025   8.9025   8.9050   8.9050   9.8506   9.8972   9.8972   9.9523
     9.9523  10.0653  10.2879  10.3025  10.3025  10.3183  10.3183  10.3676
    10.5937  10.5937

     occupation numbers 
     1.0000   1.0000   1.0000   1.0000   1.0000   1.0000   1.0000   1.0000
     1.0000   1.0000   1.0000   1.0000   1.0000   1.0000   1.0000   1.0000
     1.0000   1.0000   1.0000   1.0000   1.0000   1.0000   1.0000   1.0000
     1.0000   1.0000   1.0000   1.0000   1.0000   1.0000   1.0000   1.0000
     1.0000   1.0000   1.0000   1.0000   1.0000   1.0000   1.0000   1.0000
     1.0000   1.0000   1.0000   1.0000   1.0000   1.0000   1.0000   1.0000
     1.0000   1.0000   1.0000   1.0000   1.0000   1.0000   1.0000   1.0000
     1.0000   1.0000   1.0000   1.0000   1.0000   1.0000   1.0000   1.0000
     1.0000   1.0000   1.0000   1.0000   1.0000   1.0000   1.0000   1.0000
     1.0000   1.0000   1.0000   1.0000   1.0000   1.0000   1.0000   1.0000
     1.0000   1.0000   1.0000   1.0000   1.0000   1.0000   1.0000   1.0000
     1.0000   1.0000   1.0000   1.0000   1.0000   1.0000   1.0816   0.0000
     0.0000   0.0000   0.0000   0.0000   0.0000   0.0000   0.0000   0.0000
     0.0000   0.0000   0.0000   0.0000   0.0000   0.0000   0.0000   0.0000
     0.0000   0.0000

          k = 0.0000 0.0000 0.1828 ( 55040 PWs)   bands (ev):

   -48.0016 -48.0016 -47.8973 -47.8973 -47.8973 -47.8973 -24.4847 -24.4847
   -24.2413 -24.2413 -24.2413 -24.2413 -24.2149 -24.2148 -24.0746 -24.0746
   -24.0745 -24.0745 -23.8321 -23.8321 -23.6748 -23.6748 -23.6748 -23.6748
    -9.6295  -9.5563  -9.1262  -8.9556  -8.5503  -8.5273  -8.4838  -8.4838
    -8.3993  -8.3993  -8.2518  -8.2189  -7.9088  -7.9088  -7.8751  -7.8751
     0.7902   0.7902   0.8459   0.8459   1.0392   1.1420   1.3313   1.4558
     1.6011   1.6989   1.6989   1.8656   1.8656   1.9456   2.2577   2.2577
     2.2915   2.3142   2.5657   2.5657   2.8256   2.8957   2.9921   2.9921
     3.0891   3.0891   3.3443   3.4837   3.4837   3.5447   3.6292   3.6292
     3.7773   3.7773   3.8550   3.9102   3.9102   3.9386   3.9445   4.3428
     4.5328   4.5328   4.5890   4.5890   5.1142   5.1142   5.1266   5.1266
     6.1817   6.2721   6.7315   6.7315   6.8264   6.8264   8.0593   8.2298
     8.9018   8.9018   8.9059   8.9059   9.8501   9.9066   9.9066   9.9424
     9.9424  10.0701  10.2880  10.2986  10.2986  10.3199  10.3199  10.3666
    10.5588  10.5588

     occupation numbers 
     1.0000   1.0000   1.0000   1.0000   1.0000   1.0000   1.0000   1.0000
     1.0000   1.0000   1.0000   1.0000   1.0000   1.0000   1.0000   1.0000
     1.0000   1.0000   1.0000   1.0000   1.0000   1.0000   1.0000   1.0000
     1.0000   1.0000   1.0000   1.0000   1.0000   1.0000   1.0000   1.0000
     1.0000   1.0000   1.0000   1.0000   1.0000   1.0000   1.0000   1.0000
     1.0000   1.0000   1.0000   1.0000   1.0000   1.0000   1.0000   1.0000
     1.0000   1.0000   1.0000   1.0000   1.0000   1.0000   1.0000   1.0000
     1.0000   1.0000   1.0000   1.0000   1.0000   1.0000   1.0000   1.0000
     1.0000   1.0000   1.0000   1.0000   1.0000   1.0000   1.0000   1.0000
     1.0000   1.0000   1.0000   1.0000   1.0000   1.0000   1.0000   1.0000
     1.0000   1.0000   1.0000   1.0000   1.0000   1.0000   1.0000   1.0000
     1.0000   1.0000   1.0000   1.0000   1.0000   1.0000   0.4604   0.0000
     0.0000   0.0000   0.0000   0.0000   0.0000   0.0000   0.0000   0.0000
     0.0000   0.0000   0.0000   0.0000   0.0000   0.0000   0.0000   0.0000
     0.0000   0.0000

          k = 0.0000 0.0000-0.2743 ( 55022 PWs)   bands (ev):

   -48.0016 -48.0016 -47.8973 -47.8973 -47.8973 -47.8973 -24.4847 -24.4847
   -24.2413 -24.2413 -24.2413 -24.2413 -24.2149 -24.2149 -24.0746 -24.0746
   -24.0745 -24.0745 -23.8321 -23.8321 -23.6748 -23.6748 -23.6748 -23.6748
    -9.6230  -9.5634  -9.1307  -8.9492  -8.5521  -8.5263  -8.4835  -8.4835
    -8.3997  -8.3997  -8.2401  -8.2311  -7.9074  -7.9074  -7.8764  -7.8764
     0.7972   0.7972   0.8347   0.8347   1.0869   1.1091   1.3456   1.4693
     1.5442   1.7183   1.7183   1.8612   1.8612   1.9142   2.2527   2.2527
     2.3138   2.3386   2.5571   2.5571   2.8340   2.8858   2.9829   2.9829
     3.0897   3.0897   3.3214   3.4753   3.4753   3.5501   3.6362   3.6362
     3.8436   3.8436   3.8567   3.8567   3.8715   3.9294   4.1220   4.1690
     4.5380   4.5380   4.5858   4.5858   5.1138   5.1138   5.1268   5.1268
     6.1879   6.2659   6.7237   6.7237   6.8320   6.8320   8.1154   8.1805
     8.9016   8.9016   8.9062   8.9062   9.8499   9.9142   9.9142   9.9345
     9.9345  10.0726  10.2880  10.2968  10.2968  10.3206  10.3206  10.3660
    10.5465  10.5465

     occupation numbers 
     1.0000   1.0000   1.0000   1.0000   1.0000   1.0000   1.0000   1.0000
     1.0000   1.0000   1.0000   1.0000   1.0000   1.0000   1.0000   1.0000
     1.0000   1.0000   1.0000   1.0000   1.0000   1.0000   1.0000   1.0000
     1.0000   1.0000   1.0000   1.0000   1.0000   1.0000   1.0000   1.0000
     1.0000   1.0000   1.0000   1.0000   1.0000   1.0000   1.0000   1.0000
     1.0000   1.0000   1.0000   1.0000   1.0000   1.0000   1.0000   1.0000
     1.0000   1.0000   1.0000   1.0000   1.0000   1.0000   1.0000   1.0000
     1.0000   1.0000   1.0000   1.0000   1.0000   1.0000   1.0000   1.0000
     1.0000   1.0000   1.0000   1.0000   1.0000   1.0000   1.0000   1.0000
     1.0000   1.0000   1.0000   1.0000   1.0000   1.0000   1.0000   1.0000
     1.0000   1.0000   1.0000   1.0000   1.0000   1.0000   1.0000   1.0000
     1.0000   1.0000   1.0000   1.0000   1.0000   1.0000   0.0259   0.0000
     0.0000   0.0000   0.0000   0.0000   0.0000   0.0000   0.0000   0.0000
     0.0000   0.0000   0.0000   0.0000   0.0000   0.0000   0.0000   0.0000
     0.0000   0.0000

          k =-0.0962 0.1667-0.0305 ( 54982 PWs)   bands (ev):

   -48.0013 -48.0013 -47.8976 -47.8976 -47.8973 -47.8973 -24.4784 -24.4784
   -24.2402 -24.2401 -24.2366 -24.2365 -24.2133 -24.2131 -24.0764 -24.0764
   -24.0747 -24.0747 -23.8354 -23.8354 -23.6834 -23.6834 -23.6765 -23.6765
    -9.6135  -9.5223  -9.0879  -8.9539  -8.5727  -8.5535  -8.4900  -8.4820
    -8.4213  -8.3923  -8.2588  -8.1928  -7.9412  -7.9176  -7.9005  -7.8760
     0.8688   0.8893   0.9032   0.9567   1.1555   1.2416   1.2977   1.4868
     1.6231   1.6746   1.7999   1.8830   1.9956   2.0599   2.1531   2.2389
     2.2984   2.3235   2.5739   2.5994   2.8438   2.9285   2.9482   2.9714
     3.0304   3.1092   3.2949   3.3276   3.4406   3.4699   3.5686   3.6505
     3.6545   3.7189   3.7875   3.8249   3.8741   3.8924   3.9728   4.3517
     4.3763   4.4995   4.5893   4.5953   4.8873   4.9375   5.0631   5.1073
     6.1242   6.2183   6.7802   6.7850   6.8025   6.8458   7.9393   8.2600
     8.9148   8.9244   8.9317   8.9539   9.7600   9.8157   9.8412   9.8684
     9.9069   9.9668  10.0870  10.1484  10.2574  10.3038  10.3260  10.3447
    10.6690  10.7125

     occupation numbers 
     1.0000   1.0000   1.0000   1.0000   1.0000   1.0000   1.0000   1.0000
     1.0000   1.0000   1.0000   1.0000   1.0000   1.0000   1.0000   1.0000
     1.0000   1.0000   1.0000   1.0000   1.0000   1.0000   1.0000   1.0000
     1.0000   1.0000   1.0000   1.0000   1.0000   1.0000   1.0000   1.0000
     1.0000   1.0000   1.0000   1.0000   1.0000   1.0000   1.0000   1.0000
     1.0000   1.0000   1.0000   1.0000   1.0000   1.0000   1.0000   1.0000
     1.0000   1.0000   1.0000   1.0000   1.0000   1.0000   1.0000   1.0000
     1.0000   1.0000   1.0000   1.0000   1.0000   1.0000   1.0000   1.0000
     1.0000   1.0000   1.0000   1.0000   1.0000   1.0000   1.0000   1.0000
     1.0000   1.0000   1.0000   1.0000   1.0000   1.0000   1.0000   1.0000
     1.0000   1.0000   1.0000   1.0000   1.0000   1.0000   1.0000   1.0000
     1.0000   1.0000   1.0000   1.0000   1.0000   1.0000   1.0109   0.0000
     0.0000   0.0000   0.0000   0.0000   0.0000   0.0000   0.0000   0.0000
     0.0000   0.0000   0.0000   0.0000   0.0000   0.0000   0.0000   0.0000
     0.0000   0.0000

          k =-0.0962 0.1667 0.0609 ( 55003 PWs)   bands (ev):

   -48.0013 -48.0013 -47.8976 -47.8976 -47.8973 -47.8973 -24.4784 -24.4784
   -24.2402 -24.2401 -24.2366 -24.2365 -24.2133 -24.2132 -24.0764 -24.0764
   -24.0747 -24.0747 -23.8354 -23.8354 -23.6834 -23.6834 -23.6765 -23.6765
    -9.6123  -9.5236  -9.0899  -8.9515  -8.5745  -8.5513  -8.4909  -8.4815
    -8.4210  -8.3929  -8.2569  -8.1947  -7.9425  -7.9160  -7.8992  -7.8774
     0.8735   0.8890   0.9029   0.9495   1.1538   1.2562   1.2981   1.4866
     1.6117   1.6676   1.7916   1.9161   1.9617   2.0704   2.1489   2.2263
     2.3075   2.3531   2.5683   2.5972   2.8491   2.8925   2.9478   3.0033
     3.0366   3.1001   3.2851   3.3398   3.3883   3.4901   3.5566   3.6315
     3.6977   3.7415   3.7949   3.8159   3.8697   3.8976   3.9688   4.3445
     4.4087   4.4959   4.5558   4.5978   4.8899   4.9377   5.0587   5.1126
     6.1249   6.2171   6.7617   6.7947   6.8192   6.8368   7.9463   8.2552
     8.9156   8.9230   8.9344   8.9508   9.7609   9.8159   9.8399   9.8688
     9.9062   9.9619  10.0845  10.1545  10.2607  10.3051  10.3211  10.3408
    10.6378  10.7483

     occupation numbers 
     1.0000   1.0000   1.0000   1.0000   1.0000   1.0000   1.0000   1.0000
     1.0000   1.0000   1.0000   1.0000   1.0000   1.0000   1.0000   1.0000
     1.0000   1.0000   1.0000   1.0000   1.0000   1.0000   1.0000   1.0000
     1.0000   1.0000   1.0000   1.0000   1.0000   1.0000   1.0000   1.0000
     1.0000   1.0000   1.0000   1.0000   1.0000   1.0000   1.0000   1.0000
     1.0000   1.0000   1.0000   1.0000   1.0000   1.0000   1.0000   1.0000
     1.0000   1.0000   1.0000   1.0000   1.0000   1.0000   1.0000   1.0000
     1.0000   1.0000   1.0000   1.0000   1.0000   1.0000   1.0000   1.0000
     1.0000   1.0000   1.0000   1.0000   1.0000   1.0000   1.0000   1.0000
     1.0000   1.0000   1.0000   1.0000   1.0000   1.0000   1.0000   1.0000
     1.0000   1.0000   1.0000   1.0000   1.0000   1.0000   1.0000   1.0000
     1.0000   1.0000   1.0000   1.0000   1.0000   1.0000   1.0170   0.0000
     0.0000   0.0000   0.0000   0.0000   0.0000   0.0000   0.0000   0.0000
     0.0000   0.0000   0.0000   0.0000   0.0000   0.0000   0.0000   0.0000
     0.0000   0.0000

          k =-0.0962 0.1667 0.1524 ( 54975 PWs)   bands (ev):

   -48.0013 -48.0013 -47.8976 -47.8976 -47.8973 -47.8973 -24.4784 -24.4784
   -24.2402 -24.2401 -24.2366 -24.2365 -24.2133 -24.2132 -24.0764 -24.0764
   -24.0748 -24.0747 -23.8354 -23.8354 -23.6834 -23.6834 -23.6765 -23.6765
    -9.6050  -9.5313  -9.1001  -8.9388  -8.5755  -8.5514  -8.4909  -8.4811
    -8.4217  -8.3936  -8.2469  -8.2052  -7.9414  -7.9140  -7.9001  -7.8792
     0.8826   0.8840   0.9204   0.9307   1.1526   1.2499   1.3322   1.4850
     1.6389   1.6404   1.7819   1.9048   1.9105   2.0066   2.2210   2.2270
     2.3412   2.3879   2.5621   2.5867   2.8464   2.8619   2.9376   3.0227
     3.0260   3.0922   3.2629   3.3384   3.3655   3.5016   3.5437   3.6637
     3.7022   3.7780   3.8127   3.8274   3.9010   3.9426   3.9434   4.3096
     4.4367   4.4747   4.4961   4.5970   4.9017   4.9308   5.0612   5.1105
     6.1321   6.2085   6.7460   6.7841   6.8315   6.8450   7.9910   8.2207
     8.9175   8.9211   8.9334   8.9507   9.7670   9.8066   9.8472   9.8678
     9.8978   9.9706  10.0822  10.1560  10.2685  10.3044  10.3046  10.3406
    10.6205  10.7711

     occupation numbers 
     1.0000   1.0000   1.0000   1.0000   1.0000   1.0000   1.0000   1.0000
     1.0000   1.0000   1.0000   1.0000   1.0000   1.0000   1.0000   1.0000
     1.0000   1.0000   1.0000   1.0000   1.0000   1.0000   1.0000   1.0000
     1.0000   1.0000   1.0000   1.0000   1.0000   1.0000   1.0000   1.0000
     1.0000   1.0000   1.0000   1.0000   1.0000   1.0000   1.0000   1.0000
     1.0000   1.0000   1.0000   1.0000   1.0000   1.0000   1.0000   1.0000
     1.0000   1.0000   1.0000   1.0000   1.0000   1.0000   1.0000   1.0000
     1.0000   1.0000   1.0000   1.0000   1.0000   1.0000   1.0000   1.0000
     1.0000   1.0000   1.0000   1.0000   1.0000   1.0000   1.0000   1.0000
     1.0000   1.0000   1.0000   1.0000   1.0000   1.0000   1.0000   1.0000
     1.0000   1.0000   1.0000   1.0000   1.0000   1.0000   1.0000   1.0000
     1.0000   1.0000   1.0000   1.0000   1.0000   1.0000   1.0830   0.0000
     0.0000   0.0000   0.0000   0.0000   0.0000   0.0000   0.0000   0.0000
     0.0000   0.0000   0.0000   0.0000   0.0000   0.0000   0.0000   0.0000
     0.0000   0.0000

          k =-0.0962 0.1667-0.3047 ( 54959 PWs)   bands (ev):

   -48.0013 -48.0013 -47.8976 -47.8976 -47.8973 -47.8973 -24.4784 -24.4784
   -24.2402 -24.2401 -24.2366 -24.2365 -24.2133 -24.2132 -24.0764 -24.0764
   -24.0748 -24.0747 -23.8354 -23.8354 -23.6834 -23.6834 -23.6765 -23.6765
    -9.5977  -9.5391  -9.1075  -8.9294  -8.5748  -8.5535  -8.4901  -8.4810
    -8.4227  -8.3936  -8.2313  -8.2211  -7.9389  -7.9138  -7.9025  -7.8793
     0.8805   0.8924   0.9167   0.9341   1.1536   1.2405   1.3598   1.4760
     1.6239   1.6918   1.7609   1.8448   1.9039   1.9862   2.2349   2.2419
     2.3590   2.4159   2.5610   2.5782   2.8251   2.8719   2.9260   3.0022
     3.0318   3.0952   3.2527   3.3213   3.3723   3.5104   3.5159   3.6994
     3.7548   3.7962   3.8034   3.8242   3.8992   3.9107   4.0709   4.2158
     4.4039   4.4728   4.5003   4.5936   4.9148   4.9195   5.0696   5.1015
     6.1382   6.2015   6.7417   6.7693   6.8339   6.8566   8.0434   8.1762
     8.9182   8.9210   8.9297   8.9533   9.7749   9.7943   9.8607   9.8686
     9.8851   9.9824  10.0820  10.1518  10.2752  10.2908  10.3024  10.3442
    10.6206  10.7409

     occupation numbers 
     1.0000   1.0000   1.0000   1.0000   1.0000   1.0000   1.0000   1.0000
     1.0000   1.0000   1.0000   1.0000   1.0000   1.0000   1.0000   1.0000
     1.0000   1.0000   1.0000   1.0000   1.0000   1.0000   1.0000   1.0000
     1.0000   1.0000   1.0000   1.0000   1.0000   1.0000   1.0000   1.0000
     1.0000   1.0000   1.0000   1.0000   1.0000   1.0000   1.0000   1.0000
     1.0000   1.0000   1.0000   1.0000   1.0000   1.0000   1.0000   1.0000
     1.0000   1.0000   1.0000   1.0000   1.0000   1.0000   1.0000   1.0000
     1.0000   1.0000   1.0000   1.0000   1.0000   1.0000   1.0000   1.0000
     1.0000   1.0000   1.0000   1.0000   1.0000   1.0000   1.0000   1.0000
     1.0000   1.0000   1.0000   1.0000   1.0000   1.0000   1.0000   1.0000
     1.0000   1.0000   1.0000   1.0000   1.0000   1.0000   1.0000   1.0000
     1.0000   1.0000   1.0000   1.0000   1.0000   1.0000   0.6965   0.0001
     0.0000   0.0000   0.0000   0.0000   0.0000   0.0000   0.0000   0.0000
     0.0000   0.0000   0.0000   0.0000   0.0000   0.0000   0.0000   0.0000
     0.0000   0.0000

          k =-0.0962 0.1667-0.2133 ( 54965 PWs)   bands (ev):

   -48.0013 -48.0013 -47.8976 -47.8976 -47.8973 -47.8973 -24.4784 -24.4784
   -24.2402 -24.2401 -24.2366 -24.2365 -24.2133 -24.2132 -24.0764 -24.0764
   -24.0748 -24.0747 -23.8354 -23.8354 -23.6834 -23.6834 -23.6765 -23.6765
    -9.5995  -9.5372  -9.1060  -8.9313  -8.5730  -8.5557  -8.4892  -8.4815
    -8.4231  -8.3930  -8.2382  -8.2140  -7.9373  -7.9156  -7.9040  -7.8777
     0.8814   0.8815   0.9300   0.9333   1.1575   1.2278   1.3551   1.4714
     1.6299   1.7445   1.7720   1.7881   1.8964   2.0104   2.2165   2.2532
     2.3410   2.4150   2.5664   2.5764   2.8379   2.8621   2.9298   3.0022
     3.0230   3.1008   3.2722   3.3066   3.3987   3.5116   3.5133   3.6855
     3.7402   3.7928   3.8048   3.8292   3.8783   3.9332   4.0597   4.2158
     4.3709   4.5044   4.5176   4.5907   4.9041   4.9281   5.0814   5.0887
     6.1384   6.2017   6.7511   6.7637   6.8263   6.8614   8.0297   8.1878
     8.9165   8.9233   8.9277   8.9557   9.7715   9.7976   9.8629   9.8681
     9.8849   9.9865  10.0843  10.1459  10.2653  10.3013  10.3020  10.3477
    10.6381  10.7224

     occupation numbers 
     1.0000   1.0000   1.0000   1.0000   1.0000   1.0000   1.0000   1.0000
     1.0000   1.0000   1.0000   1.0000   1.0000   1.0000   1.0000   1.0000
     1.0000   1.0000   1.0000   1.0000   1.0000   1.0000   1.0000   1.0000
     1.0000   1.0000   1.0000   1.0000   1.0000   1.0000   1.0000   1.0000
     1.0000   1.0000   1.0000   1.0000   1.0000   1.0000   1.0000   1.0000
     1.0000   1.0000   1.0000   1.0000   1.0000   1.0000   1.0000   1.0000
     1.0000   1.0000   1.0000   1.0000   1.0000   1.0000   1.0000   1.0000
     1.0000   1.0000   1.0000   1.0000   1.0000   1.0000   1.0000   1.0000
     1.0000   1.0000   1.0000   1.0000   1.0000   1.0000   1.0000   1.0000
     1.0000   1.0000   1.0000   1.0000   1.0000   1.0000   1.0000   1.0000
     1.0000   1.0000   1.0000   1.0000   1.0000   1.0000   1.0000   1.0000
     1.0000   1.0000   1.0000   1.0000   1.0000   1.0000   0.8812   0.0000
     0.0000   0.0000   0.0000   0.0000   0.0000   0.0000   0.0000   0.0000
     0.0000   0.0000   0.0000   0.0000   0.0000   0.0000   0.0000   0.0000
     0.0000   0.0000

          k =-0.0962 0.1667-0.1219 ( 54999 PWs)   bands (ev):

   -48.0013 -48.0013 -47.8976 -47.8976 -47.8973 -47.8973 -24.4784 -24.4784
   -24.2402 -24.2401 -24.2366 -24.2365 -24.2133 -24.2132 -24.0764 -24.0764
   -24.0747 -24.0747 -23.8354 -23.8354 -23.6834 -23.6834 -23.6765 -23.6765
    -9.6078  -9.5283  -9.0968  -8.9430  -8.5717  -8.5559  -8.4892  -8.4819
    -8.4224  -8.3923  -8.2520  -8.1999  -7.9386  -7.9175  -7.9029  -7.8761
     0.8714   0.8842   0.9197   0.9481   1.1586   1.2239   1.3257   1.4796
     1.6601   1.6754   1.7996   1.8264   1.9512   2.0204   2.2031   2.2511
     2.3066   2.3647   2.5731   2.5880   2.8484   2.8826   2.9404   2.9982
     3.0165   3.1070   3.2951   3.3091   3.4357   3.4911   3.5525   3.6437
     3.6862   3.7379   3.7936   3.8650   3.8845   3.9273   3.9583   4.3136
     4.3589   4.5038   4.5656   4.5917   4.8935   4.9341   5.0734   5.0963
     6.1315   6.2101   6.7701   6.7703   6.8108   6.8573   7.9738   8.2335
     8.9152   8.9246   8.9287   8.9560   9.7640   9.8084   9.8501   9.8670
     9.8988   9.9795  10.0871  10.1439  10.2587  10.3019  10.3174  10.3481
    10.6689  10.7135

     occupation numbers 
     1.0000   1.0000   1.0000   1.0000   1.0000   1.0000   1.0000   1.0000
     1.0000   1.0000   1.0000   1.0000   1.0000   1.0000   1.0000   1.0000
     1.0000   1.0000   1.0000   1.0000   1.0000   1.0000   1.0000   1.0000
     1.0000   1.0000   1.0000   1.0000   1.0000   1.0000   1.0000   1.0000
     1.0000   1.0000   1.0000   1.0000   1.0000   1.0000   1.0000   1.0000
     1.0000   1.0000   1.0000   1.0000   1.0000   1.0000   1.0000   1.0000
     1.0000   1.0000   1.0000   1.0000   1.0000   1.0000   1.0000   1.0000
     1.0000   1.0000   1.0000   1.0000   1.0000   1.0000   1.0000   1.0000
     1.0000   1.0000   1.0000   1.0000   1.0000   1.0000   1.0000   1.0000
     1.0000   1.0000   1.0000   1.0000   1.0000   1.0000   1.0000   1.0000
     1.0000   1.0000   1.0000   1.0000   1.0000   1.0000   1.0000   1.0000
     1.0000   1.0000   1.0000   1.0000   1.0000   1.0000   1.0602   0.0000
     0.0000   0.0000   0.0000   0.0000   0.0000   0.0000   0.0000   0.0000
     0.0000   0.0000   0.0000   0.0000   0.0000   0.0000   0.0000   0.0000
     0.0000   0.0000

          k =-0.1925 0.3333-0.0609 ( 54997 PWs)   bands (ev):

   -48.0007 -48.0007 -47.8983 -47.8983 -47.8973 -47.8973 -24.4655 -24.4655
   -24.2374 -24.2374 -24.2266 -24.2266 -24.2099 -24.2098 -24.0803 -24.0803
   -24.0752 -24.0752 -23.8425 -23.8425 -23.7011 -23.7011 -23.6798 -23.6798
    -9.5474  -9.4897  -9.0164  -8.8888  -8.6850  -8.5987  -8.4982  -8.4763
    -8.4635  -8.3808  -8.2395  -8.1756  -7.9922  -7.9639  -7.9278  -7.8847
     1.0424   1.0777   1.1268   1.1313   1.2849   1.3086   1.5911   1.6669
     1.7160   1.8101   1.9042   1.9072   2.0633   2.1609   2.1836   2.2267
     2.2868   2.3851   2.4392   2.5423   2.7729   2.8099   2.8864   3.0034
     3.0278   3.0357   3.1246   3.1631   3.2050   3.3663   3.3768   3.6013
     3.6088   3.6480   3.7163   3.7621   3.8917   3.9424   4.0123   4.0305
     4.1451   4.4293   4.4526   4.5285   4.5451   4.6041   5.0069   5.0416
     6.0548   6.0888   6.7912   6.7982   6.8437   6.9151   7.8534   8.1555
     8.9381   8.9585   9.0009   9.0488   9.5659   9.6569   9.6971   9.7325
     9.7675   9.8207   9.9854  10.0555  10.2517  10.2966  10.3158  10.3856
    10.6202  10.6810

     occupation numbers 
     1.0000   1.0000   1.0000   1.0000   1.0000   1.0000   1.0000   1.0000
     1.0000   1.0000   1.0000   1.0000   1.0000   1.0000   1.0000   1.0000
     1.0000   1.0000   1.0000   1.0000   1.0000   1.0000   1.0000   1.0000
     1.0000   1.0000   1.0000   1.0000   1.0000   1.0000   1.0000   1.0000
     1.0000   1.0000   1.0000   1.0000   1.0000   1.0000   1.0000   1.0000
     1.0000   1.0000   1.0000   1.0000   1.0000   1.0000   1.0000   1.0000
     1.0000   1.0000   1.0000   1.0000   1.0000   1.0000   1.0000   1.0000
     1.0000   1.0000   1.0000   1.0000   1.0000   1.0000   1.0000   1.0000
     1.0000   1.0000   1.0000   1.0000   1.0000   1.0000   1.0000   1.0000
     1.0000   1.0000   1.0000   1.0000   1.0000   1.0000   1.0000   1.0000
     1.0000   1.0000   1.0000   1.0000   1.0000   1.0000   1.0000   1.0000
     1.0000   1.0000   1.0000   1.0000   1.0000   1.0000   1.0000   0.0008
     0.0000   0.0000   0.0000   0.0000   0.0000   0.0000   0.0000   0.0000
     0.0000   0.0000   0.0000   0.0000   0.0000   0.0000   0.0000   0.0000
     0.0000   0.0000

          k =-0.1925 0.3333 0.0305 ( 55005 PWs)   bands (ev):

   -48.0007 -48.0007 -47.8983 -47.8983 -47.8973 -47.8973 -24.4655 -24.4655
   -24.2374 -24.2374 -24.2266 -24.2266 -24.2099 -24.2098 -24.0803 -24.0803
   -24.0752 -24.0752 -23.8425 -23.8425 -23.7011 -23.7011 -23.6798 -23.6798
    -9.5480  -9.4894  -9.0136  -8.8921  -8.6854  -8.5980  -8.4983  -8.4760
    -8.4624  -8.3812  -8.2402  -8.1763  -7.9931  -7.9622  -7.9267  -7.8856
     1.0290   1.0782   1.1354   1.1425   1.2439   1.3425   1.6027   1.6301
     1.7091   1.7956   1.9339   1.9524   2.0716   2.1430   2.1765   2.2383
     2.3034   2.3656   2.4307   2.5484   2.7477   2.8225   2.9055   2.9915
     2.9942   3.0559   3.1570   3.1607   3.1979   3.3438   3.3741   3.5753
     3.5994   3.6556   3.6909   3.7709   3.9007   3.9454   4.0090   4.0708
     4.1626   4.4082   4.4310   4.5299   4.5475   4.6250   4.9925   5.0583
     6.0488   6.0941   6.7808   6.8083   6.8535   6.9059   7.8495   8.1593
     8.9381   8.9574   9.0091   9.0402   9.5737   9.6374   9.7020   9.7255
     9.7687   9.8202   9.9871  10.0565  10.2564  10.2889  10.2990  10.4023
    10.6354  10.6750

     occupation numbers 
     1.0000   1.0000   1.0000   1.0000   1.0000   1.0000   1.0000   1.0000
     1.0000   1.0000   1.0000   1.0000   1.0000   1.0000   1.0000   1.0000
     1.0000   1.0000   1.0000   1.0000   1.0000   1.0000   1.0000   1.0000
     1.0000   1.0000   1.0000   1.0000   1.0000   1.0000   1.0000   1.0000
     1.0000   1.0000   1.0000   1.0000   1.0000   1.0000   1.0000   1.0000
     1.0000   1.0000   1.0000   1.0000   1.0000   1.0000   1.0000   1.0000
     1.0000   1.0000   1.0000   1.0000   1.0000   1.0000   1.0000   1.0000
     1.0000   1.0000   1.0000   1.0000   1.0000   1.0000   1.0000   1.0000
     1.0000   1.0000   1.0000   1.0000   1.0000   1.0000   1.0000   1.0000
     1.0000   1.0000   1.0000   1.0000   1.0000   1.0000   1.0000   1.0000
     1.0000   1.0000   1.0000   1.0000   1.0000   1.0000   1.0000   1.0000
     1.0000   1.0000   1.0000   1.0000   1.0000   1.0000   1.0000   0.0005
     0.0000   0.0000   0.0000   0.0000   0.0000   0.0000   0.0000   0.0000
     0.0000   0.0000   0.0000   0.0000   0.0000   0.0000   0.0000   0.0000
     0.0000   0.0000

          k =-0.1925 0.3333 0.1219 ( 54980 PWs)   bands (ev):

   -48.0007 -48.0007 -47.8983 -47.8983 -47.8973 -47.8973 -24.4655 -24.4655
   -24.2374 -24.2374 -24.2266 -24.2266 -24.2099 -24.2098 -24.0803 -24.0803
   -24.0752 -24.0752 -23.8425 -23.8425 -23.7011 -23.7011 -23.6798 -23.6798
    -9.5450  -9.4920  -9.0201  -8.8851  -8.6859  -8.5977  -8.4989  -8.4759
    -8.4619  -8.3813  -8.2339  -8.1833  -7.9943  -7.9606  -7.9263  -7.8860
     1.0243   1.0823   1.1291   1.1646   1.2110   1.3612   1.6150   1.6325
     1.6895   1.8020   1.9260   1.9516   2.0691   2.1714   2.1763   2.2013
     2.3039   2.3828   2.4337   2.6122   2.6790   2.8391   2.9269   2.9554
     2.9797   3.0829   3.1256   3.1648   3.2029   3.3132   3.4232   3.5178
     3.6294   3.6520   3.6825   3.7667   3.9241   3.9547   3.9958   4.0715
     4.2290   4.3443   4.4348   4.5427   4.5468   4.6210   4.9866   5.0660
     6.0476   6.0943   6.7730   6.8146   6.8614   6.8975   7.8672   8.1460
     8.9406   8.9540   9.0122   9.0335   9.5714   9.6207   9.6913   9.7454
     9.7698   9.8353   9.9665  10.0678  10.2641  10.2798  10.2951  10.4055
    10.6160  10.6919

     occupation numbers 
     1.0000   1.0000   1.0000   1.0000   1.0000   1.0000   1.0000   1.0000
     1.0000   1.0000   1.0000   1.0000   1.0000   1.0000   1.0000   1.0000
     1.0000   1.0000   1.0000   1.0000   1.0000   1.0000   1.0000   1.0000
     1.0000   1.0000   1.0000   1.0000   1.0000   1.0000   1.0000   1.0000
     1.0000   1.0000   1.0000   1.0000   1.0000   1.0000   1.0000   1.0000
     1.0000   1.0000   1.0000   1.0000   1.0000   1.0000   1.0000   1.0000
     1.0000   1.0000   1.0000   1.0000   1.0000   1.0000   1.0000   1.0000
     1.0000   1.0000   1.0000   1.0000   1.0000   1.0000   1.0000   1.0000
     1.0000   1.0000   1.0000   1.0000   1.0000   1.0000   1.0000   1.0000
     1.0000   1.0000   1.0000   1.0000   1.0000   1.0000   1.0000   1.0000
     1.0000   1.0000   1.0000   1.0000   1.0000   1.0000   1.0000   1.0000
     1.0000   1.0000   1.0000   1.0000   1.0000   1.0000   1.0000   0.0020
     0.0000   0.0000   0.0000   0.0000   0.0000   0.0000   0.0000   0.0000
     0.0000   0.0000   0.0000   0.0000   0.0000   0.0000   0.0000   0.0000
     0.0000   0.0000

          k =-0.1925 0.3333-0.3352 ( 54982 PWs)   bands (ev):

   -48.0007 -48.0007 -47.8983 -47.8983 -47.8973 -47.8973 -24.4656 -24.4655
   -24.2374 -24.2374 -24.2266 -24.2266 -24.2099 -24.2098 -24.0803 -24.0803
   -24.0752 -24.0752 -23.8425 -23.8425 -23.7011 -23.7011 -23.6798 -23.6798
    -9.5411  -9.4955  -9.0284  -8.8758  -8.6861  -8.5980  -8.4994  -8.4761
    -8.4625  -8.3811  -8.2244  -8.1923  -7.9947  -7.9606  -7.9269  -7.8854
     1.0313   1.0881   1.1169   1.1733   1.1993   1.3638   1.6250   1.6717
     1.6758   1.8128   1.8970   1.9037   2.0800   2.1312   2.1810   2.2096
     2.3122   2.4190   2.4465   2.6273   2.6628   2.8427   2.9203   2.9521
     2.9738   3.0794   3.1121   3.1445   3.2205   3.2983   3.4782   3.5091
     3.6125   3.6723   3.6964   3.7440   3.9521   3.9612   3.9850   4.0383
     4.2632   4.3277   4.4371   4.5436   4.5579   4.5941   4.9902   5.0619
     6.0517   6.0898   6.7710   6.8156   6.8555   6.9022   7.8918   8.1257
     8.9447   8.9501   9.0034   9.0389   9.5585   9.6267   9.6841   9.7658
     9.7717   9.8483   9.9456  10.0749  10.2632  10.2823  10.3061  10.3943
    10.5928  10.7035

     occupation numbers 
     1.0000   1.0000   1.0000   1.0000   1.0000   1.0000   1.0000   1.0000
     1.0000   1.0000   1.0000   1.0000   1.0000   1.0000   1.0000   1.0000
     1.0000   1.0000   1.0000   1.0000   1.0000   1.0000   1.0000   1.0000
     1.0000   1.0000   1.0000   1.0000   1.0000   1.0000   1.0000   1.0000
     1.0000   1.0000   1.0000   1.0000   1.0000   1.0000   1.0000   1.0000
     1.0000   1.0000   1.0000   1.0000   1.0000   1.0000   1.0000   1.0000
     1.0000   1.0000   1.0000   1.0000   1.0000   1.0000   1.0000   1.0000
     1.0000   1.0000   1.0000   1.0000   1.0000   1.0000   1.0000   1.0000
     1.0000   1.0000   1.0000   1.0000   1.0000   1.0000   1.0000   1.0000
     1.0000   1.0000   1.0000   1.0000   1.0000   1.0000   1.0000   1.0000
     1.0000   1.0000   1.0000   1.0000   1.0000   1.0000   1.0000   1.0000
     1.0000   1.0000   1.0000   1.0000   1.0000   1.0000   1.0002   0.0118
     0.0000   0.0000   0.0000   0.0000   0.0000   0.0000   0.0000   0.0000
     0.0000   0.0000   0.0000   0.0000   0.0000   0.0000   0.0000   0.0000
     0.0000   0.0000

          k =-0.1925 0.3333-0.2438 ( 55002 PWs)   bands (ev):

   -48.0007 -48.0007 -47.8983 -47.8983 -47.8973 -47.8973 -24.4656 -24.4655
   -24.2374 -24.2374 -24.2266 -24.2266 -24.2099 -24.2098 -24.0803 -24.0803
   -24.0752 -24.0752 -23.8425 -23.8425 -23.7011 -23.7011 -23.6798 -23.6798
    -9.5404  -9.4960  -9.0307  -8.8730  -8.6858  -8.5986  -8.4993  -8.4763
    -8.4636  -8.3807  -8.2237  -8.1917  -7.9939  -7.9622  -7.9280  -7.8845
     1.0406   1.0886   1.1122   1.1613   1.2194   1.3503   1.6122   1.6760
     1.7330   1.8325   1.8351   1.8932   2.0556   2.1266   2.1867   2.2112
     2.2931   2.4429   2.4552   2.6445   2.6523   2.8256   2.9286   2.9702
     2.9851   3.0468   3.1167   3.1345   3.2276   3.3153   3.4574   3.5429
     3.6329   3.6995   3.7035   3.7134   3.9530   3.9630   3.9934   4.0048
     4.1922   4.4110   4.4355   4.5410   4.5544   4.5731   5.0024   5.0473
     6.0602   6.0821   6.7756   6.8113   6.8450   6.9121   7.8969   8.1206
     8.9437   8.9522   8.9958   9.0468   9.5531   9.6418   9.6826   9.7701
     9.7726   9.8488   9.9429  10.0741  10.2563  10.2923  10.3260  10.3746
    10.5834  10.7035

     occupation numbers 
     1.0000   1.0000   1.0000   1.0000   1.0000   1.0000   1.0000   1.0000
     1.0000   1.0000   1.0000   1.0000   1.0000   1.0000   1.0000   1.0000
     1.0000   1.0000   1.0000   1.0000   1.0000   1.0000   1.0000   1.0000
     1.0000   1.0000   1.0000   1.0000   1.0000   1.0000   1.0000   1.0000
     1.0000   1.0000   1.0000   1.0000   1.0000   1.0000   1.0000   1.0000
     1.0000   1.0000   1.0000   1.0000   1.0000   1.0000   1.0000   1.0000
     1.0000   1.0000   1.0000   1.0000   1.0000   1.0000   1.0000   1.0000
     1.0000   1.0000   1.0000   1.0000   1.0000   1.0000   1.0000   1.0000
     1.0000   1.0000   1.0000   1.0000   1.0000   1.0000   1.0000   1.0000
     1.0000   1.0000   1.0000   1.0000   1.0000   1.0000   1.0000   1.0000
     1.0000   1.0000   1.0000   1.0000   1.0000   1.0000   1.0000   1.0000
     1.0000   1.0000   1.0000   1.0000   1.0000   1.0000   1.0003   0.0176
     0.0000   0.0000   0.0000   0.0000   0.0000   0.0000   0.0000   0.0000
     0.0000   0.0000   0.0000   0.0000   0.0000   0.0000   0.0000   0.0000
     0.0000   0.0000

          k =-0.1925 0.3333-0.1524 ( 54995 PWs)   bands (ev):

   -48.0007 -48.0007 -47.8983 -47.8983 -47.8973 -47.8973 -24.4655 -24.4655
   -24.2374 -24.2374 -24.2266 -24.2266 -24.2099 -24.2098 -24.0803 -24.0803
   -24.0752 -24.0752 -23.8425 -23.8425 -23.7011 -23.7011 -23.6798 -23.6798
    -9.5439  -9.4929  -9.0252  -8.8791  -8.6852  -8.5990  -8.4987  -8.4764
    -8.4641  -8.3805  -8.2325  -8.1821  -7.9926  -7.9638  -7.9284  -7.8841
     1.0464   1.0818   1.1209   1.1379   1.2619   1.3240   1.5910   1.6946
     1.7300   1.8331   1.8469   1.8904   2.0388   2.1754   2.1889   2.2085
     2.2557   2.4289   2.4510   2.5950   2.7138   2.8101   2.9150   2.9993
     3.0201   3.0321   3.0977   3.1526   3.2172   3.3518   3.4155   3.5646
     3.6433   3.6878   3.7017   3.7432   3.9185   3.9454   4.0055   4.0105
     4.1486   4.4316   4.4613   4.5350   4.5419   4.5794   5.0210   5.0269
     6.0628   6.0805   6.7854   6.8028   6.8402   6.9175   7.8759   8.1373
     8.9403   8.9565   8.9953   9.0510   9.5574   9.6558   9.6870   9.7545
     9.7699   9.8361   9.9623  10.0660  10.2519  10.2981  10.3349  10.3662
    10.5945  10.6949

     occupation numbers 
     1.0000   1.0000   1.0000   1.0000   1.0000   1.0000   1.0000   1.0000
     1.0000   1.0000   1.0000   1.0000   1.0000   1.0000   1.0000   1.0000
     1.0000   1.0000   1.0000   1.0000   1.0000   1.0000   1.0000   1.0000
     1.0000   1.0000   1.0000   1.0000   1.0000   1.0000   1.0000   1.0000
     1.0000   1.0000   1.0000   1.0000   1.0000   1.0000   1.0000   1.0000
     1.0000   1.0000   1.0000   1.0000   1.0000   1.0000   1.0000   1.0000
     1.0000   1.0000   1.0000   1.0000   1.0000   1.0000   1.0000   1.0000
     1.0000   1.0000   1.0000   1.0000   1.0000   1.0000   1.0000   1.0000
     1.0000   1.0000   1.0000   1.0000   1.0000   1.0000   1.0000   1.0000
     1.0000   1.0000   1.0000   1.0000   1.0000   1.0000   1.0000   1.0000
     1.0000   1.0000   1.0000   1.0000   1.0000   1.0000   1.0000   1.0000
     1.0000   1.0000   1.0000   1.0000   1.0000   1.0000   1.0000   0.0044
     0.0000   0.0000   0.0000   0.0000   0.0000   0.0000   0.0000   0.0000
     0.0000   0.0000   0.0000   0.0000   0.0000   0.0000   0.0000   0.0000
     0.0000   0.0000

          k = 0.2887-0.5000 0.0914 ( 55006 PWs)   bands (ev):

   -48.0004 -48.0004 -47.8986 -47.8986 -47.8973 -47.8973 -24.4590 -24.4590
   -24.2359 -24.2359 -24.2214 -24.2214 -24.2081 -24.2080 -24.0823 -24.0823
   -24.0754 -24.0754 -23.8463 -23.8463 -23.7102 -23.7102 -23.6814 -23.6813
    -9.5090  -9.4781  -8.9142  -8.8830  -8.7485  -8.6610  -8.5036  -8.4786
    -8.4733  -8.3749  -8.2262  -8.1673  -8.0101  -8.0044  -7.9328  -7.8892
     1.1031   1.1435   1.1970   1.2024   1.4657   1.5558   1.6788   1.6998
     1.8356   1.8826   1.8845   1.9814   2.1392   2.1723   2.2052   2.2663
     2.2748   2.3341   2.4894   2.6350   2.6836   2.7130   2.7618   2.9087
     2.9292   2.9341   3.0707   3.0952   3.2787   3.2843   3.3656   3.3876
     3.3884   3.5244   3.6791   3.7156   3.9556   4.0154   4.0386   4.0438
     4.1491   4.3191   4.3791   4.3860   4.4139   4.4931   4.9974   5.0018
     6.0138   6.0406   6.7848   6.7938   6.8849   6.9382   7.8007   8.0936
     8.9535   8.9752   9.0513   9.0833   9.5013   9.5413   9.5893   9.6771
     9.7278   9.8101   9.9669  10.0195  10.2469  10.2792  10.3569  10.4065
    10.5642  10.6497

     occupation numbers 
     1.0000   1.0000   1.0000   1.0000   1.0000   1.0000   1.0000   1.0000
     1.0000   1.0000   1.0000   1.0000   1.0000   1.0000   1.0000   1.0000
     1.0000   1.0000   1.0000   1.0000   1.0000   1.0000   1.0000   1.0000
     1.0000   1.0000   1.0000   1.0000   1.0000   1.0000   1.0000   1.0000
     1.0000   1.0000   1.0000   1.0000   1.0000   1.0000   1.0000   1.0000
     1.0000   1.0000   1.0000   1.0000   1.0000   1.0000   1.0000   1.0000
     1.0000   1.0000   1.0000   1.0000   1.0000   1.0000   1.0000   1.0000
     1.0000   1.0000   1.0000   1.0000   1.0000   1.0000   1.0000   1.0000
     1.0000   1.0000   1.0000   1.0000   1.0000   1.0000   1.0000   1.0000
     1.0000   1.0000   1.0000   1.0000   1.0000   1.0000   1.0000   1.0000
     1.0000   1.0000   1.0000   1.0000   1.0000   1.0000   1.0000   1.0000
     1.0000   1.0000   1.0000   1.0000   1.0000   1.0000   1.0000   0.1043
     0.0000   0.0000   0.0000   0.0000   0.0000   0.0000   0.0000   0.0000
     0.0000   0.0000   0.0000   0.0000   0.0000   0.0000   0.0000   0.0000
     0.0000   0.0000

          k = 0.2887-0.5000 0.1828 ( 54974 PWs)   bands (ev):

   -48.0004 -48.0004 -47.8986 -47.8986 -47.8973 -47.8973 -24.4590 -24.4590
   -24.2359 -24.2359 -24.2214 -24.2214 -24.2081 -24.2080 -24.0823 -24.0823
   -24.0755 -24.0754 -23.8463 -23.8463 -23.7102 -23.7102 -23.6814 -23.6813
    -9.5083  -9.4787  -8.9127  -8.8851  -8.7487  -8.6602  -8.5036  -8.4779
    -8.4734  -8.3748  -8.2258  -8.1688  -8.0099  -8.0040  -7.9330  -7.8890
     1.0968   1.1402   1.1840   1.2189   1.4716   1.5561   1.6516   1.7193
     1.8127   1.8544   1.9554   1.9955   2.1469   2.1775   2.1972   2.2474
     2.2958   2.3413   2.4783   2.5787   2.6846   2.7126   2.7858   2.8637
     2.9297   2.9864   3.0731   3.1050   3.2676   3.2689   3.3608   3.3852
     3.4026   3.5377   3.6580   3.7060   3.9672   4.0154   4.0359   4.0370
     4.1549   4.3242   4.3752   4.3821   4.4282   4.4937   4.9772   5.0236
     6.0142   6.0399   6.7851   6.7933   6.8872   6.9354   7.8035   8.0917
     8.9543   8.9737   9.0522   9.0807   9.4908   9.5440   9.5846   9.6892
     9.7265   9.8152   9.9463  10.0331  10.2484  10.2767  10.3411  10.4202
    10.5662  10.6507

     occupation numbers 
     1.0000   1.0000   1.0000   1.0000   1.0000   1.0000   1.0000   1.0000
     1.0000   1.0000   1.0000   1.0000   1.0000   1.0000   1.0000   1.0000
     1.0000   1.0000   1.0000   1.0000   1.0000   1.0000   1.0000   1.0000
     1.0000   1.0000   1.0000   1.0000   1.0000   1.0000   1.0000   1.0000
     1.0000   1.0000   1.0000   1.0000   1.0000   1.0000   1.0000   1.0000
     1.0000   1.0000   1.0000   1.0000   1.0000   1.0000   1.0000   1.0000
     1.0000   1.0000   1.0000   1.0000   1.0000   1.0000   1.0000   1.0000
     1.0000   1.0000   1.0000   1.0000   1.0000   1.0000   1.0000   1.0000
     1.0000   1.0000   1.0000   1.0000   1.0000   1.0000   1.0000   1.0000
     1.0000   1.0000   1.0000   1.0000   1.0000   1.0000   1.0000   1.0000
     1.0000   1.0000   1.0000   1.0000   1.0000   1.0000   1.0000   1.0000
     1.0000   1.0000   1.0000   1.0000   1.0000   1.0000   1.0000   0.1156
     0.0000   0.0000   0.0000   0.0000   0.0000   0.0000   0.0000   0.0000
     0.0000   0.0000   0.0000   0.0000   0.0000   0.0000   0.0000   0.0000
     0.0000   0.0000

          k = 0.2887-0.5000 0.2743 ( 54989 PWs)   bands (ev):

   -48.0004 -48.0004 -47.8986 -47.8986 -47.8973 -47.8973 -24.4590 -24.4590
   -24.2359 -24.2359 -24.2214 -24.2214 -24.2081 -24.2080 -24.0823 -24.0823
   -24.0755 -24.0754 -23.8463 -23.8463 -23.7102 -23.7102 -23.6814 -23.6813
    -9.5068  -9.4802  -8.9086  -8.8905  -8.7491  -8.6588  -8.5036  -8.4766
    -8.4735  -8.3747  -8.2250  -8.1719  -8.0095  -8.0034  -7.9335  -7.8887
     1.0852   1.1334   1.1743   1.2358   1.4834   1.5539   1.6271   1.7337
     1.7594   1.8950   2.0127   2.0135   2.1664   2.1752   2.1906   2.2305
     2.3258   2.3605   2.4609   2.5089   2.6374   2.7119   2.7646   2.8934
     2.9305   3.0301   3.0890   3.1198   3.2289   3.2460   3.3493   3.3797
     3.4490   3.5686   3.6052   3.6816   3.9897   4.0166   4.0232   4.0291
     4.1692   4.3091   4.3880   4.3916   4.4400   4.4949   4.9619   5.0421
     6.0151   6.0386   6.7859   6.7922   6.8930   6.9288   7.8093   8.0878
     8.9565   8.9702   9.0553   9.0743   9.4725   9.5472   9.5771   9.7137
     9.7241   9.8251   9.9136  10.0492  10.2530  10.2701  10.3196  10.4381
    10.5677  10.6544

     occupation numbers 
     1.0000   1.0000   1.0000   1.0000   1.0000   1.0000   1.0000   1.0000
     1.0000   1.0000   1.0000   1.0000   1.0000   1.0000   1.0000   1.0000
     1.0000   1.0000   1.0000   1.0000   1.0000   1.0000   1.0000   1.0000
     1.0000   1.0000   1.0000   1.0000   1.0000   1.0000   1.0000   1.0000
     1.0000   1.0000   1.0000   1.0000   1.0000   1.0000   1.0000   1.0000
     1.0000   1.0000   1.0000   1.0000   1.0000   1.0000   1.0000   1.0000
     1.0000   1.0000   1.0000   1.0000   1.0000   1.0000   1.0000   1.0000
     1.0000   1.0000   1.0000   1.0000   1.0000   1.0000   1.0000   1.0000
     1.0000   1.0000   1.0000   1.0000   1.0000   1.0000   1.0000   1.0000
     1.0000   1.0000   1.0000   1.0000   1.0000   1.0000   1.0000   1.0000
     1.0000   1.0000   1.0000   1.0000   1.0000   1.0000   1.0000   1.0000
     1.0000   1.0000   1.0000   1.0000   1.0000   1.0000   1.0000   0.1424
     0.0000   0.0000   0.0000   0.0000   0.0000   0.0000   0.0000   0.0000
     0.0000   0.0000   0.0000   0.0000   0.0000   0.0000   0.0000   0.0000
     0.0000   0.0000

          k = 0.2887-0.5000-0.1828 ( 54980 PWs)   bands (ev):

   -48.0004 -48.0004 -47.8986 -47.8986 -47.8973 -47.8973 -24.4590 -24.4590
   -24.2359 -24.2359 -24.2214 -24.2214 -24.2081 -24.2080 -24.0823 -24.0823
   -24.0755 -24.0754 -23.8463 -23.8463 -23.7102 -23.7102 -23.6814 -23.6814
    -9.5059  -9.4810  -8.9051  -8.8947  -8.7493  -8.6580  -8.5036  -8.4760
    -8.4736  -8.3746  -8.2245  -8.1734  -8.0092  -8.0031  -7.9337  -7.8885
     1.0797   1.1301   1.1710   1.2428   1.4891   1.5513   1.6197   1.7389
     1.7393   1.9178   2.0142   2.0390   2.1623   2.1790   2.1959   2.2253
     2.3337   2.3829   2.4556   2.4900   2.5822   2.7116   2.7566   2.9147
     2.9309   3.0474   3.1075   3.1222   3.2040   3.2326   3.3452   3.3773
     3.4914   3.5596   3.5898   3.6633   4.0083   4.0087   4.0195   4.0234
     4.1789   4.2940   4.3909   4.4109   4.4391   4.4955   4.9565   5.0490
     6.0155   6.0380   6.7864   6.7916   6.8968   6.9245   7.8122   8.0857
     8.9583   8.9677   9.0586   9.0693   9.4640   9.5482   9.5741   9.7229
     9.7272   9.8298   9.8976  10.0551  10.2584  10.2637  10.3110  10.4453
    10.5672  10.6569

     occupation numbers 
     1.0000   1.0000   1.0000   1.0000   1.0000   1.0000   1.0000   1.0000
     1.0000   1.0000   1.0000   1.0000   1.0000   1.0000   1.0000   1.0000
     1.0000   1.0000   1.0000   1.0000   1.0000   1.0000   1.0000   1.0000
     1.0000   1.0000   1.0000   1.0000   1.0000   1.0000   1.0000   1.0000
     1.0000   1.0000   1.0000   1.0000   1.0000   1.0000   1.0000   1.0000
     1.0000   1.0000   1.0000   1.0000   1.0000   1.0000   1.0000   1.0000
     1.0000   1.0000   1.0000   1.0000   1.0000   1.0000   1.0000   1.0000
     1.0000   1.0000   1.0000   1.0000   1.0000   1.0000   1.0000   1.0000
     1.0000   1.0000   1.0000   1.0000   1.0000   1.0000   1.0000   1.0000
     1.0000   1.0000   1.0000   1.0000   1.0000   1.0000   1.0000   1.0000
     1.0000   1.0000   1.0000   1.0000   1.0000   1.0000   1.0000   1.0000
     1.0000   1.0000   1.0000   1.0000   1.0000   1.0000   1.0000   0.1580
     0.0000   0.0000   0.0000   0.0000   0.0000   0.0000   0.0000   0.0000
     0.0000   0.0000   0.0000   0.0000   0.0000   0.0000   0.0000   0.0000
     0.0000   0.0000

          k =-0.0000 0.3333 0.0000 ( 54970 PWs)   bands (ev):

   -48.0008 -48.0008 -47.8981 -47.8981 -47.8973 -47.8973 -24.4687 -24.4687
   -24.2376 -24.2376 -24.2299 -24.2298 -24.2108 -24.2106 -24.0790 -24.0790
   -24.0753 -24.0753 -23.8406 -23.8406 -23.6955 -23.6955 -23.6801 -23.6801
    -9.5658  -9.4966  -9.0385  -8.9110  -8.6266  -8.5989  -8.5172  -8.4823
    -8.4341  -8.3847  -8.2453  -8.1769  -7.9924  -7.9547  -7.9094  -7.8811
     0.9808   1.0271   1.0821   1.1066   1.2502   1.3135   1.4692   1.5986
     1.6500   1.7758   1.8216   2.0250   2.0596   2.1048   2.1060   2.2641
     2.3322   2.3691   2.4907   2.5705   2.8287   2.8358   2.8735   2.9798
     3.0069   3.0879   3.1439   3.1711   3.2679   3.2864   3.4804   3.6456
     3.7062   3.7441   3.7601   3.8214   3.8538   3.8794   3.9457   4.1795
     4.1797   4.3689   4.3895   4.5726   4.7168   4.7337   4.9787   5.0127
     6.0833   6.1235   6.7862   6.7970   6.8333   6.9031   7.8814   8.2035
     8.8872   8.9080   9.0195   9.0597   9.6346   9.6774   9.7500   9.7809
     9.8505   9.8836   9.9632  10.0440  10.1734  10.1758  10.3417  10.4093
    10.6653  10.7144

     occupation numbers 
     1.0000   1.0000   1.0000   1.0000   1.0000   1.0000   1.0000   1.0000
     1.0000   1.0000   1.0000   1.0000   1.0000   1.0000   1.0000   1.0000
     1.0000   1.0000   1.0000   1.0000   1.0000   1.0000   1.0000   1.0000
     1.0000   1.0000   1.0000   1.0000   1.0000   1.0000   1.0000   1.0000
     1.0000   1.0000   1.0000   1.0000   1.0000   1.0000   1.0000   1.0000
     1.0000   1.0000   1.0000   1.0000   1.0000   1.0000   1.0000   1.0000
     1.0000   1.0000   1.0000   1.0000   1.0000   1.0000   1.0000   1.0000
     1.0000   1.0000   1.0000   1.0000   1.0000   1.0000   1.0000   1.0000
     1.0000   1.0000   1.0000   1.0000   1.0000   1.0000   1.0000   1.0000
     1.0000   1.0000   1.0000   1.0000   1.0000   1.0000   1.0000   1.0000
     1.0000   1.0000   1.0000   1.0000   1.0000   1.0000   1.0000   1.0000
     1.0000   1.0000   1.0000   1.0000   1.0000   1.0000   1.0001   0.0000
     0.0000   0.0000   0.0000   0.0000   0.0000   0.0000   0.0000   0.0000
     0.0000   0.0000   0.0000   0.0000   0.0000   0.0000   0.0000   0.0000
     0.0000   0.0000

          k =-0.0000 0.3333 0.0914 ( 54992 PWs)   bands (ev):

   -48.0008 -48.0008 -47.8981 -47.8981 -47.8973 -47.8973 -24.4687 -24.4687
   -24.2376 -24.2376 -24.2299 -24.2298 -24.2108 -24.2106 -24.0790 -24.0790
   -24.0753 -24.0753 -23.8406 -23.8406 -23.6955 -23.6955 -23.6801 -23.6801
    -9.5635  -9.4987  -9.0438  -8.9050  -8.6265  -8.5993  -8.5172  -8.4824
    -8.4347  -8.3844  -8.2411  -8.1811  -7.9914  -7.9560  -7.9093  -7.8810
     0.9829   1.0305   1.0858   1.1002   1.2473   1.3106   1.4770   1.6180
     1.6370   1.7786   1.8217   1.9891   2.0387   2.0928   2.1530   2.2502
     2.3084   2.4129   2.5148   2.5704   2.7732   2.8405   2.9152   2.9686
     3.0035   3.0740   3.1439   3.1717   3.2690   3.2887   3.4932   3.6393
     3.6911   3.7562   3.7722   3.8139   3.8477   3.8782   3.9758   4.1659
[...]
     atom    4 type  1   force =     0.23427292    0.00000000    0.03900079
     atom    5 type  1   force =    -0.11713646    0.20288630    0.03900079
     atom    6 type  1   force =    -0.11713646   -0.20288630    0.03900079
     atom    7 type  2   force =     0.00000000    0.00000000    0.46321808
     atom    8 type  2   force =    -0.18405991   -0.00000000    0.28108072
     atom    9 type  2   force =     0.09202995   -0.15940055    0.28108072
     atom   10 type  2   force =     0.09202995    0.15940055    0.28108072
     atom   11 type  2   force =     0.00000000   -0.00000000   -0.35089974
     atom   12 type  2   force =     0.20017534    0.00000000   -0.28483879
     atom   13 type  2   force =    -0.10008767    0.17335693   -0.28483879
     atom   14 type  2   force =    -0.10008767   -0.17335693   -0.28483879
     atom   15 type  2   force =    -0.20017534    0.00000000    0.28483879
     atom   16 type  2   force =     0.10008767   -0.17335693    0.28483879
     atom   17 type  2   force =     0.10008767    0.17335693    0.28483879
     atom   18 type  2   force =     0.00000000   -0.00000000    0.35089974
     atom   19 type  2   force =     0.18405991   -0.00000000   -0.28108072
     atom   20 type  2   force =    -0.09202995    0.15940055   -0.28108072
     atom   21 type  2   force =    -0.09202995   -0.15940055   -0.28108072
     atom   22 type  2   force =     0.00000000    0.00000000   -0.46321808
     The ionic contribution  to forces
     atom    1 type  1   force =     9.31206717   -0.00000000   -0.27125130
     atom    2 type  1   force =    -4.65603358    8.06448673   -0.27125129
     atom    3 type  1   force =    -4.65603358   -8.06448673   -0.27125129
     atom    4 type  1   force =    -9.31206717    0.00000000    0.27125130
     atom    5 type  1   force =     4.65603358   -8.06448673    0.27125129
     atom    6 type  1   force =     4.65603358    8.06448673    0.27125129
     atom    7 type  2   force =     0.00000000    0.00000000  -14.32244284
     atom    8 type  2   force =     4.00004427   -0.00000000   -8.11156155
     atom    9 type  2   force =    -2.00002214    3.46413995   -8.11156156
     atom   10 type  2   force =    -2.00002214   -3.46413995   -8.11156156
     atom   11 type  2   force =     0.00000000    0.00000000    9.68116341
     atom   12 type  2   force =    -6.82504864    0.00000000   10.09421942
     atom   13 type  2   force =     3.41252432   -5.91066551   10.09421942
     atom   14 type  2   force =     3.41252432    5.91066551   10.09421942
     atom   15 type  2   force =     6.82504864   -0.00000000  -10.09421942
     atom   16 type  2   force =    -3.41252432    5.91066551  -10.09421942
     atom   17 type  2   force =    -3.41252432   -5.91066551  -10.09421942
     atom   18 type  2   force =    -0.00000000   -0.00000000   -9.68116341
     atom   19 type  2   force =    -4.00004427    0.00000000    8.11156155
     atom   20 type  2   force =     2.00002214   -3.46413995    8.11156156
     atom   21 type  2   force =     2.00002214    3.46413995    8.11156156
     atom   22 type  2   force =    -0.00000000    0.00000000   14.32244284
     The local contribution  to forces
     atom    1 type  1   force =    -9.07562357    0.00000000    0.31030985
     atom    2 type  1   force =     4.53781179   -7.85972057    0.31030985
     atom    3 type  1   force =     4.53781179    7.85972057    0.31030985
     atom    4 type  1   force =     9.07562357   -0.00000000   -0.31030985
     atom    5 type  1   force =    -4.53781179    7.85972057   -0.31030985
     atom    6 type  1   force =    -4.53781179   -7.85972057   -0.31030985
     atom    7 type  2   force =    -0.00000000   -0.00000000   13.86012350
     atom    8 type  2   force =    -3.81650953   -0.00000000    7.83127838
     atom    9 type  2   force =     1.90825476   -3.30519420    7.83127838
     atom   10 type  2   force =     1.90825476    3.30519420    7.83127838
     atom   11 type  2   force =     0.00000001    0.00000000   -9.33217391
     atom   12 type  2   force =     6.62581082   -0.00000000   -9.80977970
     atom   13 type  2   force =    -3.31290541    5.73812049   -9.80977970
     atom   14 type  2   force =    -3.31290541   -5.73812049   -9.80977970
     atom   15 type  2   force =    -6.62581082    0.00000000    9.80977970
     atom   16 type  2   force =     3.31290541   -5.73812049    9.80977970
     atom   17 type  2   force =     3.31290541    5.73812049    9.80977970
     atom   18 type  2   force =    -0.00000001   -0.00000000    9.33217391
     atom   19 type  2   force =     3.81650953    0.00000000   -7.83127838
     atom   20 type  2   force =    -1.90825476    3.30519420   -7.83127838
     atom   21 type  2   force =    -1.90825476   -3.30519420   -7.83127838
     atom   22 type  2   force =     0.00000000    0.00000000  -13.86012350
     The core correction contribution to forces
     atom    1 type  1   force =     0.00000000    0.00000000    0.00000000
     atom    2 type  1   force =     0.00000000    0.00000000    0.00000000
     atom    3 type  1   force =     0.00000000    0.00000000    0.00000000
     atom    4 type  1   force =     0.00000000    0.00000000    0.00000000
     atom    5 type  1   force =     0.00000000    0.00000000    0.00000000
     atom    6 type  1   force =     0.00000000    0.00000000    0.00000000
     atom    7 type  2   force =     0.00000000    0.00000000    0.00000000
     atom    8 type  2   force =     0.00000000    0.00000000    0.00000000
     atom    9 type  2   force =     0.00000000    0.00000000    0.00000000
     atom   10 type  2   force =     0.00000000    0.00000000    0.00000000
     atom   11 type  2   force =     0.00000000    0.00000000    0.00000000
     atom   12 type  2   force =     0.00000000    0.00000000    0.00000000
     atom   13 type  2   force =     0.00000000    0.00000000    0.00000000
     atom   14 type  2   force =     0.00000000    0.00000000    0.00000000
     atom   15 type  2   force =     0.00000000    0.00000000    0.00000000
     atom   16 type  2   force =     0.00000000    0.00000000    0.00000000
     atom   17 type  2   force =     0.00000000    0.00000000    0.00000000
     atom   18 type  2   force =     0.00000000    0.00000000    0.00000000
     atom   19 type  2   force =     0.00000000    0.00000000    0.00000000
     atom   20 type  2   force =     0.00000000    0.00000000    0.00000000
     atom   21 type  2   force =     0.00000000    0.00000000    0.00000000
     atom   22 type  2   force =     0.00000000    0.00000000    0.00000000
     The Hubbard contrib.    to forces
     atom    1 type  1   force =     0.00000000    0.00000000    0.00000000
     atom    2 type  1   force =     0.00000000    0.00000000    0.00000000
     atom    3 type  1   force =     0.00000000    0.00000000    0.00000000
     atom    4 type  1   force =     0.00000000    0.00000000    0.00000000
     atom    5 type  1   force =     0.00000000    0.00000000    0.00000000
     atom    6 type  1   force =     0.00000000    0.00000000    0.00000000
     atom    7 type  2   force =     0.00000000    0.00000000    0.00000000
     atom    8 type  2   force =     0.00000000    0.00000000    0.00000000
     atom    9 type  2   force =     0.00000000    0.00000000    0.00000000
     atom   10 type  2   force =     0.00000000    0.00000000    0.00000000
     atom   11 type  2   force =     0.00000000    0.00000000    0.00000000
     atom   12 type  2   force =     0.00000000    0.00000000    0.00000000
     atom   13 type  2   force =     0.00000000    0.00000000    0.00000000
     atom   14 type  2   force =     0.00000000    0.00000000    0.00000000
     atom   15 type  2   force =     0.00000000    0.00000000    0.00000000
     atom   16 type  2   force =     0.00000000    0.00000000    0.00000000
     atom   17 type  2   force =     0.00000000    0.00000000    0.00000000
     atom   18 type  2   force =     0.00000000    0.00000000    0.00000000
     atom   19 type  2   force =     0.00000000    0.00000000    0.00000000
     atom   20 type  2   force =     0.00000000    0.00000000    0.00000000
     atom   21 type  2   force =     0.00000000    0.00000000    0.00000000
     atom   22 type  2   force =     0.00000000    0.00000000    0.00000000
     The SCF correction term to forces
     atom    1 type  1   force =     0.00000022    0.00000000   -0.00000079
     atom    2 type  1   force =    -0.00000011    0.00000019   -0.00000079
     atom    3 type  1   force =    -0.00000011   -0.00000019   -0.00000079
     atom    4 type  1   force =    -0.00000022   -0.00000000    0.00000079
     atom    5 type  1   force =     0.00000011   -0.00000019    0.00000079
     atom    6 type  1   force =     0.00000011    0.00000019    0.00000079
     atom    7 type  2   force =    -0.00000000   -0.00000000   -0.00000016
     atom    8 type  2   force =     0.00000004   -0.00000000   -0.00000040
     atom    9 type  2   force =    -0.00000002    0.00000004   -0.00000040
     atom   10 type  2   force =    -0.00000002   -0.00000004   -0.00000040
     atom   11 type  2   force =    -0.00000000    0.00000000    0.00000010
     atom   12 type  2   force =    -0.00000035   -0.00000000    0.00000015
     atom   13 type  2   force =     0.00000018   -0.00000030    0.00000015
     atom   14 type  2   force =     0.00000018    0.00000030    0.00000015
     atom   15 type  2   force =     0.00000035    0.00000000   -0.00000015
     atom   16 type  2   force =    -0.00000018    0.00000030   -0.00000015
     atom   17 type  2   force =    -0.00000018   -0.00000030   -0.00000015
     atom   18 type  2   force =     0.00000000   -0.00000000   -0.00000010
     atom   19 type  2   force =    -0.00000004   -0.00000000    0.00000040
     atom   20 type  2   force =     0.00000002   -0.00000004    0.00000040
     atom   21 type  2   force =     0.00000002    0.00000004    0.00000040
     atom   22 type  2   force =     0.00000000    0.00000000    0.00000016

     DFT-D3 dispersion contribution to forces:
     atom    1 type  1   force =    -0.00217095   -0.00000000   -0.00005779
     atom    2 type  1   force =     0.00108548   -0.00188010   -0.00005779
     atom    3 type  1   force =     0.00108548    0.00188010   -0.00005779
     atom    4 type  1   force =     0.00217095    0.00000000    0.00005779
     atom    5 type  1   force =    -0.00108548    0.00188010    0.00005779
     atom    6 type  1   force =    -0.00108548   -0.00188010    0.00005779
     atom    7 type  2   force =     0.00000000    0.00000000   -0.00089933
     atom    8 type  2   force =     0.00052515   -0.00000000   -0.00079786
     atom    9 type  2   force =    -0.00026257    0.00045479   -0.00079786
     atom   10 type  2   force =    -0.00026257   -0.00045479   -0.00079786
     atom   11 type  2   force =     0.00000000   -0.00000000    0.00190924
     atom   12 type  2   force =    -0.00093711   -0.00000000    0.00039812
     atom   13 type  2   force =     0.00046855   -0.00081156    0.00039812
     atom   14 type  2   force =     0.00046855    0.00081156    0.00039812
     atom   15 type  2   force =     0.00093711   -0.00000000   -0.00039812
     atom   16 type  2   force =    -0.00046855    0.00081156   -0.00039812
     atom   17 type  2   force =    -0.00046855   -0.00081156   -0.00039812
     atom   18 type  2   force =    -0.00000000    0.00000000   -0.00190924
     atom   19 type  2   force =    -0.00052515    0.00000000    0.00079786
     atom   20 type  2   force =     0.00026257   -0.00045479    0.00079786
     atom   21 type  2   force =     0.00026257    0.00045479    0.00079786
     atom   22 type  2   force =    -0.00000000   -0.00000000    0.00089933

     Total force =     0.000004     Total SCF correction =     0.000002

     DFT-D3 dispersion Force =     0.006993
     SCF correction compared to forces is large: reduce conv_thr to get better values


     Computing stress (Cartesian axis) and pressure

          total   stress  (Ry/bohr**3)                   (kbar)     P=        3.70
   0.00003304   0.00000000  -0.00000000            4.86        0.00       -0.00
  -0.00000000   0.00003304  -0.00000000           -0.00        4.86       -0.00
  -0.00000000   0.00000000   0.00000940           -0.00        0.00        1.38

     kinetic stress (kbar)  11723.98      0.00      0.00
                               -0.00  11723.98      0.00
                                0.00      0.00  11631.66

     local   stress (kbar) -18911.39      0.00     -0.00
                                0.00 -18911.39      0.00
                               -0.00      0.00   -748.10

     nonloc. stress (kbar)  10660.48      0.00      0.00
                               -0.00  10660.48     -0.00
                                0.00     -0.00  10694.28

     hartree stress (kbar)   7621.77      0.00      0.00
                                0.00   7621.77      0.00
                                0.00      0.00   -349.68

     exc-cor stress (kbar)  -2482.43     -0.00      0.00
                               -0.00  -2482.43     -0.00
                                0.00     -0.00  -2485.77

     corecor stress (kbar)      0.00      0.00      0.00
                                0.00      0.00      0.00
                                0.00      0.00      0.00

     ewald   stress (kbar)  -8592.91     -0.00      0.00
                               -0.00  -8592.91      0.00
                                0.00      0.00 -18722.95

     hubbard stress (kbar)      0.00      0.00      0.00
                                0.00      0.00      0.00
                                0.00      0.00      0.00

     DFT-D   stress (kbar)    -14.65      0.00     -0.00
                                0.00    -14.65      0.00
                               -0.00      0.00    -18.05

     XDM     stress (kbar)      0.00      0.00      0.00
                                0.00      0.00      0.00
                                0.00      0.00      0.00

     dft-nl  stress (kbar)      0.00      0.00      0.00
                                0.00      0.00      0.00
                                0.00      0.00      0.00

     TS-vdW  stress (kbar)      0.00      0.00      0.00
                                0.00      0.00      0.00
                                0.00      0.00      0.00

     MDB     stress (kbar)      0.00      0.00      0.00
                                0.00      0.00      0.00
                                0.00      0.00      0.00

     3D-RISM stress (kbar)      0.00      0.00      0.00
                                0.00      0.00      0.00
                                0.00      0.00      0.00


     Damped Dynamics: convergence achieved in   4 steps

     End of damped dynamics calculation

     Final energy =   -1170.2715687721 Ry

Begin final coordinates
     new unit-cell volume =   3256.01675 a.u.^3 (   482.49190 Ang^3 )
     density =      3.87069 g/cm^3

CELL_PARAMETERS (angstrom)
   5.833355223   3.367889208   0.000000000
  -5.833355223   3.367889208   0.000000000
  -3.888903482   0.000000000  12.279588495

ATOMIC_POSITIONS (crystal)
Nb               0.0542801742       -0.0542801742       -0.2524660278
Nb               0.0542801742        0.3610263761       -0.2524660278
Nb              -0.3610263761       -0.0542801742       -0.2524660278
Nb              -0.0542801742        0.0542801742        0.2524660278
Nb              -0.0542801742       -0.3610263761        0.2524660278
Nb               0.3610263761        0.0542801742        0.2524660278
Cl              -0.1339607180        0.1339607180       -0.4018821539
Cl               0.3808770319       -0.3808770319       -0.3633964184
Cl               0.3808770319        0.1251504820       -0.3633964184
Cl              -0.1251504820       -0.3808770319       -0.3633964184
Cl               0.2861642135       -0.2861642135       -0.1415073595
Cl              -0.2050967025        0.2050967025       -0.1189198224
Cl              -0.2050967025       -0.2912735827       -0.1189198224
Cl               0.2912735827        0.2050967025       -0.1189198224
Cl               0.2050967025       -0.2050967025        0.1189198224
Cl               0.2050967025        0.2912735827        0.1189198224
Cl              -0.2912735827       -0.2050967025        0.1189198224
Cl              -0.2861642135        0.2861642135        0.1415073595
Cl              -0.3808770319        0.3808770319        0.3633964184
Cl              -0.3808770319       -0.1251504820        0.3633964184
Cl               0.1251504820        0.3808770319        0.3633964184
Cl               0.1339607180       -0.1339607180        0.4018821539
End final coordinates



     Writing all to output data dir ./out/Nb3Cl8.save/ :
     XML data file, charge density, pseudopotentials, collected wavefunctions

     init_run     :      1.19s CPU      1.37s WALL (       1 calls)
     electrons    :     74.00s CPU     76.79s WALL (       5 calls)
     update_pot   :     11.88s CPU     14.17s WALL (       4 calls)
     forces       :      1.64s CPU      1.84s WALL (       5 calls)
     force_dftd3  :      0.19s CPU      0.22s WALL (       5 calls)
     stress       :     13.49s CPU     13.90s WALL (       5 calls)
     stres_dftd3  :      0.11s CPU      0.13s WALL (       5 calls)

     Called by init_run:
     wfcinit      :      0.59s CPU      0.65s WALL (       1 calls)
     wfcinit:wfcr :      0.54s CPU      0.57s WALL (       2 calls)
     potinit      :      0.03s CPU      0.08s WALL (       1 calls)
     hinit0       :      0.28s CPU      0.31s WALL (       1 calls)

     Called by electrons:
     c_bands      :     66.09s CPU     67.46s WALL (      34 calls)
     sum_band     :      5.99s CPU      6.13s WALL (      34 calls)
     v_of_rho     :      0.87s CPU      0.97s WALL (      34 calls)
     v_h          :      0.06s CPU      0.07s WALL (      34 calls)
     v_xc         :      0.82s CPU      0.90s WALL (      34 calls)
     mix_rho      :      0.16s CPU      0.19s WALL (      34 calls)
     energy_dftd3 :      0.31s CPU      0.31s WALL (       5 calls)

     Called by c_bands:
     init_us_2    :      1.46s CPU      1.49s WALL (     158 calls)
     cegterg      :     47.49s CPU     48.62s WALL (      68 calls)

     Called by sum_band:
     sum_band:wei :      0.07s CPU      0.08s WALL (      34 calls)
     sum_band:loo :      4.47s CPU      4.56s WALL (      34 calls)
     sum_band:buf :      0.22s CPU      0.23s WALL (      68 calls)
     sum_band:ini :      0.66s CPU      0.67s WALL (      68 calls)

     Called by *egterg:
     cdiaghg      :      7.56s CPU      7.63s WALL (     480 calls)
     cegterg:over :      4.64s CPU      4.71s WALL (     430 calls)
     cegterg:upda :      2.55s CPU      2.64s WALL (     430 calls)
     cegterg:last :      3.28s CPU      3.32s WALL (     148 calls)
     h_psi        :     27.50s CPU     28.22s WALL (     500 calls)
     g_psi        :      0.09s CPU      0.09s WALL (     430 calls)

     Called by h_psi:
     h_psi:calbec :      4.01s CPU      4.07s WALL (     500 calls)
     vloc_psi     :     19.60s CPU     19.94s WALL (     500 calls)
     add_vuspsi   :      3.53s CPU      3.58s WALL (     500 calls)

     General routines
     calbec       :      7.41s CPU      7.51s WALL (     556 calls)
     fft          :      0.54s CPU      0.65s WALL (     384 calls)
     ffts         :      0.03s CPU      0.04s WALL (      34 calls)
     fftw         :     21.26s CPU     21.62s WALL (   50478 calls)
     davcio       :      0.00s CPU      2.06s WALL (      24 calls)

     Parallel routines

     PWSCF        :    104.30s CPU    113.00s WALL


   This run was terminated on:  12:19:47   5May2025            

=------------------------------------------------------------------------------=
   JOB DONE.
=------------------------------------------------------------------------------=
