
     Program PHONON v.7.3.1 starts on  8May2025 at 11:19:29 

     This program is part of the open-source Quantum ESPRESSO suite
     for quantum simulation of materials; please cite
         "P. Giannozzi et al., J. Phys.:Condens. Matter 21 395502 (2009);
         "P. Giannozzi et al., J. Phys.:Condens. Matter 29 465901 (2017);
         "P. Giannozzi et al., J. Chem. Phys. 152 154105 (2020);
          URL http://www.quantum-espresso.org", 
     in publications or presentations arising from this work. More details at
     http://www.quantum-espresso.org/quote

     Parallel version (MPI & OpenMP), running on     384 processor cores
     Number of MPI processes:               384
     Threads/MPI process:                     1

     MPI processes distributed on     2 nodes
     345497 MiB available memory on the printing compute node when the environment starts

     Waiting for input...
     Reading input from standard input
     Run is not recoverable starting from scratch

     Reading xml data from directory:

     ./out/Nb3I8.save/

     K-points division:     npool     =      12
     R & G space division:  proc/nbgrp/npool/nimage =      32
     Subspace diagonalization in iterative solution of the eigenvalue problem:
     a serial algorithm will be used


     IMPORTANT: XC functional enforced from input :
     Exchange-correlation= PBE
                           (   1   4   3   4   0   0   0)
     Any further DFT definition will be discarded
     Please, verify this is what you really want


     Parallelization info
     --------------------
     sticks:   dense  smooth     PW     G-vecs:    dense   smooth      PW
     Min         179     179     47                49361    49361    6723
     Max         180     180     48                49373    49373    6748
     Sum        5731    5731   1519              1579823  1579823  215427

     Using Slab Decomposition

     Message from routine divide_et_impera:
     suboptimal parallelization: some nodes have no k-points
     Reading collected, re-writing distributed wavefunctions in ./out/


     Dynamical matrices for ( 2, 2, 1)  uniform grid of q-points
     (   2 q-points):
       N         xq(1)         xq(2)         xq(3) 
       1   0.000000000   0.000000000   0.000000000
       2   0.288675135  -0.500000000   0.000000000

     Number and degeneracy of irreps per q-point
       N         xq(1)         xq(2)         xq(3)   N irreps
       1   0.000000000   0.000000000   0.000000000      22
        1   1   1   1   1   1   1   1   1   1   1   2   2   2   2   2   2   2
   2   2   2   2
       2   0.288675135  -0.500000000   0.000000000      33
     No degeneracy

     Saving dvscf to file. Distribute only q points, not irreducible representations.

     Calculation of q =    0.0000000   0.0000000   0.0000000

     Nb3I8                                                                      

     bravais-lattice index     =            0
     lattice parameter (alat)  =      14.4200  a.u.
     unit-cell volume          =   11694.9391 (a.u.)^3
     number of atoms/cell      =           11
     number of atomic types    =            2
     kinetic-energy cut-off    =     100.0000  Ry
     charge density cut-off    =     400.0000  Ry
     convergence threshold     =      1.0E-16
     beta                      =       0.7000
     number of iterations used =            4
     Exchange-correlation= PBE
                           (   1   4   3   4   0   0   0)


     celldm(1)=   14.41999  celldm(2)=    0.00000  celldm(3)=    0.00000
     celldm(4)=    0.00000  celldm(5)=    0.00000  celldm(6)=    0.00000

     crystal axes: (cart. coord. in units of alat)
               a(1) = (  0.8660  0.5000  0.0000 )  
               a(2) = ( -0.8660  0.5000  0.0000 )  
               a(3) = (  0.0000  0.0000  4.5037 )  

     reciprocal axes: (cart. coord. in units 2 pi/alat)
               b(1) = (  0.5774  1.0000 -0.0000 )  
               b(2) = ( -0.5774  1.0000  0.0000 )  
               b(3) = (  0.0000 -0.0000  0.2220 )  


     Atoms inside the unit cell: 

     Cartesian axes

     site n.  atom      mass           positions (alat units)
        1  Nb     92.9064   tau(    1) = (    0.63891    0.50000    0.44775  )
        2  Nb     92.9064   tau(    2) = (    0.11356    0.80332    0.44775  )
        3  Nb     92.9064   tau(    3) = (    0.11356    0.19668    0.44775  )
        4  I     126.9045   tau(    4) = (   -0.57776    0.50000    0.19700  )
        5  I     126.9045   tau(    5) = (   -0.14413    0.24964    0.19700  )
        6  I     126.9045   tau(    6) = (   -0.14413    0.75036    0.19700  )
        7  I     126.9045   tau(    7) = (    0.28868    0.50000    0.25576  )
        8  I     126.9045   tau(    8) = (   -0.00507    0.50000    0.64975  )
        9  I     126.9045   tau(    9) = (   -0.43048    0.74561    0.64975  )
       10  I     126.9045   tau(   10) = (   -0.43048    0.25439    0.64975  )
       11  I     126.9045   tau(   11) = (   -0.86603    0.50000    0.73043  )

     Computing dynamical matrix for 
                    q = (   0.0000000   0.0000000   0.0000000 )

      7 Sym.Ops. (with q -> -q+G )


     G cutoff = 2106.8320  (  49371 G-vectors)     FFT grid: ( 96, 96,432)

     number of k points=     7  Gaussian smearing, width (Ry)=  0.0037

     PseudoPot. # 1 for Nb read from file:
     /scratch-shared/mroesner/Nb3X8_cDFPT/pp/Nb_ONCV_PBE-1.2.upf
     MD5 check sum: 2c750ac0b6910ff4cf0ab5f6c4124a64
     Pseudo is Norm-conserving, Zval = 13.0
     Generated using ONCVPSP code by D. R. Hamann
     Using radial grid of  602 points,  6 beta functions with: 
                l(1) =   0
                l(2) =   0
                l(3) =   1
                l(4) =   1
                l(5) =   2
                l(6) =   2

     PseudoPot. # 2 for I  read from file:
     /scratch-shared/mroesner/Nb3X8_cDFPT/pp/I_ONCV_PBE-1.2.upf
     MD5 check sum: 8277ef51204d8074ead4596f3b37a2aa
     Pseudo is Norm-conserving, Zval = 17.0
     Generated using ONCVPSP code by D. R. Hamann
     Using radial grid of  602 points,  6 beta functions with: 
                l(1) =   0
                l(2) =   0
                l(3) =   1
                l(4) =   1
                l(5) =   2
                l(6) =   2

     Mode symmetry, C_3v (3m)   point group:


     Atomic displacements:
     There are   22 irreducible representations

     Representation     1      1 modes -  To be done

     Representation     2      1 modes -  To be done

     Representation     3      1 modes -  To be done

     Representation     4      1 modes -  To be done

     Representation     5      1 modes -  To be done

     Representation     6      1 modes -  To be done

     Representation     7      1 modes -  To be done

     Representation     8      1 modes -  To be done

     Representation     9      1 modes -  To be done

     Representation    10      1 modes -  To be done

     Representation    11      1 modes -  To be done

     Representation    12      2 modes -  To be done

     Representation    13      2 modes -  To be done

     Representation    14      2 modes -  To be done

     Representation    15      2 modes -  To be done

     Representation    16      2 modes -  To be done

     Representation    17      2 modes -  To be done

     Representation    18      2 modes -  To be done

     Representation    19      2 modes -  To be done

     Representation    20      2 modes -  To be done

     Representation    21      2 modes -  To be done

     Representation    22      2 modes -  To be done



     Alpha used in Ewald sum =   2.8000

     Reading Grimme-D3 Hessian from file: ./out/Nb3I8.hess

     Number of cells replicated along each semiaxis:    8   8   2
     Number of cells in the supercell:      1445
     Number of atoms in the supercell:     15895
     Hessian allocation dimension:   1573605

     Grimme-D3 Hessian read 

     Computing dynamical matrix for q:     0.000000    0.000000    0.000000

     Writing Hessian on file dynamical.false.dat

     Dynamical matrix computed
     PHONON       :     11.32s CPU     26.98s WALL



     Representation #   1 mode #   1

     Self-consistent Calculation

     Pert. #  1: Fermi energy shift (Ry) =     2.1148E-01     1.8529E-22

      iter #   1 total cpu time :    72.1 secs   av.it.:   7.0
      thresh= 1.000E-02 alpha_mix =  0.700 |ddv_scf|^2 =  1.593E-07

     Pert. #  1: Fermi energy shift (Ry) =    -1.0465E+00    -8.2718E-24

      iter #   2 total cpu time :   154.2 secs   av.it.:  18.0
      thresh= 3.992E-05 alpha_mix =  0.700 |ddv_scf|^2 =  7.606E-07

     Pert. #  1: Fermi energy shift (Ry) =     4.8664E-01     1.9852E-23

      iter #   3 total cpu time :   211.0 secs   av.it.:  16.0
      thresh= 8.721E-05 alpha_mix =  0.700 |ddv_scf|^2 =  1.138E-07

     Pert. #  1: Fermi energy shift (Ry) =     3.4835E-02     6.6174E-24

      iter #   4 total cpu time :   261.8 secs   av.it.:  15.9
      thresh= 3.374E-05 alpha_mix =  0.700 |ddv_scf|^2 =  1.364E-09

     Pert. #  1: Fermi energy shift (Ry) =    -4.9836E-02    -1.8612E-24

      iter #   5 total cpu time :   342.0 secs   av.it.:  16.7
      thresh= 3.693E-06 alpha_mix =  0.700 |ddv_scf|^2 =  7.459E-10

     Pert. #  1: Fermi energy shift (Ry) =    -4.0655E-03    -9.3058E-25

      iter #   6 total cpu time :   373.7 secs   av.it.:  16.3
      thresh= 2.731E-06 alpha_mix =  0.700 |ddv_scf|^2 =  3.125E-11

     Pert. #  1: Fermi energy shift (Ry) =    -1.2837E-02    -3.8774E-26

      iter #   7 total cpu time :   403.5 secs   av.it.:  17.6
      thresh= 5.591E-07 alpha_mix =  0.700 |ddv_scf|^2 =  2.382E-11

     Pert. #  1: Fermi energy shift (Ry) =     4.4069E-03    -3.2312E-26

      iter #   8 total cpu time :   434.6 secs   av.it.:  17.6
      thresh= 4.881E-07 alpha_mix =  0.700 |ddv_scf|^2 =  2.342E-11

     Pert. #  1: Fermi energy shift (Ry) =    -2.6120E-03     1.2925E-26

      iter #   9 total cpu time :   470.0 secs   av.it.:  16.7
      thresh= 4.839E-07 alpha_mix =  0.700 |ddv_scf|^2 =  6.370E-13

     Pert. #  1: Fermi energy shift (Ry) =    -4.1100E-03    -1.6156E-26

      iter #  10 total cpu time :   501.0 secs   av.it.:  16.9
      thresh= 7.981E-08 alpha_mix =  0.700 |ddv_scf|^2 =  2.102E-13

     Pert. #  1: Fermi energy shift (Ry) =    -3.4383E-03    -7.2701E-27

      iter #  11 total cpu time :   533.5 secs   av.it.:  16.9
      thresh= 4.585E-08 alpha_mix =  0.700 |ddv_scf|^2 =  2.503E-13

     Pert. #  1: Fermi energy shift (Ry) =    -3.8039E-03     1.2925E-26

      iter #  12 total cpu time :   564.0 secs   av.it.:  15.6
      thresh= 5.003E-08 alpha_mix =  0.700 |ddv_scf|^2 =  1.129E-13

     Pert. #  1: Fermi energy shift (Ry) =    -3.3997E-03    -5.6546E-27

      iter #  13 total cpu time :   598.1 secs   av.it.:  15.6
      thresh= 3.359E-08 alpha_mix =  0.700 |ddv_scf|^2 =  2.008E-15

     Pert. #  1: Fermi energy shift (Ry) =    -3.4802E-03    -1.6156E-27

      iter #  14 total cpu time :   625.0 secs   av.it.:  16.9
      thresh= 4.481E-09 alpha_mix =  0.700 |ddv_scf|^2 =  8.775E-17

     End of self-consistent calculation

     Convergence has been achieved 


     Representation #   2 mode #   2

     Self-consistent Calculation

     Pert. #  1: Fermi energy shift (Ry) =     1.2642E+00    -7.9409E-23

      iter #   1 total cpu time :   743.0 secs   av.it.:   7.3
      thresh= 1.000E-02 alpha_mix =  0.700 |ddv_scf|^2 =  2.864E-06

     Pert. #  1: Fermi energy shift (Ry) =    -4.0448E+00     3.3087E-24

      iter #   2 total cpu time :   794.4 secs   av.it.:  16.6
      thresh= 1.692E-04 alpha_mix =  0.700 |ddv_scf|^2 =  3.877E-05

     Pert. #  1: Fermi energy shift (Ry) =    -4.7074E-01     2.6470E-23

      iter #   3 total cpu time :   839.9 secs   av.it.:  14.0
      thresh= 6.226E-04 alpha_mix =  0.700 |ddv_scf|^2 =  1.763E-07

     Pert. #  1: Fermi energy shift (Ry) =     2.1904E-01    -6.6174E-24

      iter #   4 total cpu time :   874.6 secs   av.it.:  15.7
      thresh= 4.198E-05 alpha_mix =  0.700 |ddv_scf|^2 =  1.266E-08

     Pert. #  1: Fermi energy shift (Ry) =    -1.7707E-01     6.2039E-25

      iter #   5 total cpu time :   937.0 secs   av.it.:  17.1
      thresh= 1.125E-05 alpha_mix =  0.700 |ddv_scf|^2 =  7.896E-09

     Pert. #  1: Fermi energy shift (Ry) =    -1.8062E-02    -1.5510E-25

      iter #   6 total cpu time :   980.9 secs   av.it.:  16.1
      thresh= 8.886E-06 alpha_mix =  0.700 |ddv_scf|^2 =  5.161E-10

     Pert. #  1: Fermi energy shift (Ry) =    -1.8557E-02    -1.5510E-25

      iter #   7 total cpu time :  1007.6 secs   av.it.:  15.7
      thresh= 2.272E-06 alpha_mix =  0.700 |ddv_scf|^2 =  2.855E-12

     Pert. #  1: Fermi energy shift (Ry) =    -1.8768E-02    -2.5849E-26

      iter #   8 total cpu time :  1036.5 secs   av.it.:  18.3
      thresh= 1.690E-07 alpha_mix =  0.700 |ddv_scf|^2 =  2.988E-12

     Pert. #  1: Fermi energy shift (Ry) =    -1.8694E-02    -6.4623E-27

      iter #   9 total cpu time :  1073.6 secs   av.it.:  16.7
      thresh= 1.728E-07 alpha_mix =  0.700 |ddv_scf|^2 =  1.186E-12

     Pert. #  1: Fermi energy shift (Ry) =    -1.7663E-02     1.0097E-28

      iter #  10 total cpu time :  1098.4 secs   av.it.:  16.4
      thresh= 1.089E-07 alpha_mix =  0.700 |ddv_scf|^2 =  9.716E-14

     Pert. #  1: Fermi energy shift (Ry) =    -1.7908E-02     4.8468E-27

      iter #  11 total cpu time :  1127.1 secs   av.it.:  16.7
      thresh= 3.117E-08 alpha_mix =  0.700 |ddv_scf|^2 =  1.338E-14

     Pert. #  1: Fermi energy shift (Ry) =    -1.8043E-02     1.2117E-27

      iter #  12 total cpu time :  1154.1 secs   av.it.:  15.6
      thresh= 1.157E-08 alpha_mix =  0.700 |ddv_scf|^2 =  7.173E-15

     Pert. #  1: Fermi energy shift (Ry) =    -1.7845E-02     1.0097E-28

      iter #  13 total cpu time :  1180.5 secs   av.it.:  16.6
      thresh= 8.469E-09 alpha_mix =  0.700 |ddv_scf|^2 =  6.872E-15

     Pert. #  1: Fermi energy shift (Ry) =    -1.8036E-02     6.3109E-30

      iter #  14 total cpu time :  1206.1 secs   av.it.:  16.6
      thresh= 8.290E-09 alpha_mix =  0.700 |ddv_scf|^2 =  2.244E-16

     Pert. #  1: Fermi energy shift (Ry) =    -1.8028E-02    -2.0195E-28

      iter #  15 total cpu time :  1223.2 secs   av.it.:  16.7
      thresh= 1.498E-09 alpha_mix =  0.700 |ddv_scf|^2 =  1.402E-17

     End of self-consistent calculation

     Convergence has been achieved 


     Representation #   3 mode #   3

     Self-consistent Calculation

     Pert. #  1: Fermi energy shift (Ry) =    -1.1819E+00    -1.0588E-22

      iter #   1 total cpu time :  1365.4 secs   av.it.:   7.6
      thresh= 1.000E-02 alpha_mix =  0.700 |ddv_scf|^2 =  2.979E-06

     Pert. #  1: Fermi energy shift (Ry) =     3.6761E+00     3.3087E-24

      iter #   2 total cpu time :  1441.5 secs   av.it.:  16.6
      thresh= 1.726E-04 alpha_mix =  0.700 |ddv_scf|^2 =  4.006E-05

     Pert. #  1: Fermi energy shift (Ry) =     5.1748E-01     2.6470E-23

      iter #   3 total cpu time :  1471.4 secs   av.it.:  13.7
      thresh= 6.329E-04 alpha_mix =  0.700 |ddv_scf|^2 =  1.469E-07

     Pert. #  1: Fermi energy shift (Ry) =    -1.9412E-01     8.2718E-25

      iter #   4 total cpu time :  1499.4 secs   av.it.:  16.0
      thresh= 3.832E-05 alpha_mix =  0.700 |ddv_scf|^2 =  1.035E-08

     Pert. #  1: Fermi energy shift (Ry) =     2.0344E-01    -2.0680E-25

      iter #   5 total cpu time :  1568.6 secs   av.it.:  17.6
      thresh= 1.017E-05 alpha_mix =  0.700 |ddv_scf|^2 =  9.122E-09

     Pert. #  1: Fermi energy shift (Ry) =     1.2580E-02    -4.1359E-25

      iter #   6 total cpu time :  1598.8 secs   av.it.:  16.1
      thresh= 9.551E-06 alpha_mix =  0.700 |ddv_scf|^2 =  4.674E-10

     Pert. #  1: Fermi energy shift (Ry) =    -7.9854E-04    -1.2925E-26

      iter #   7 total cpu time :  1628.2 secs   av.it.:  15.9
      thresh= 2.162E-06 alpha_mix =  0.700 |ddv_scf|^2 =  1.671E-11

     Pert. #  1: Fermi energy shift (Ry) =     4.8298E-03     2.5849E-26

      iter #   8 total cpu time :  1656.6 secs   av.it.:  17.6
      thresh= 4.087E-07 alpha_mix =  0.700 |ddv_scf|^2 =  4.545E-12

     Pert. #  1: Fermi energy shift (Ry) =     4.2205E-03    -1.2925E-26

      iter #   9 total cpu time :  1682.5 secs   av.it.:  17.3
      thresh= 2.132E-07 alpha_mix =  0.700 |ddv_scf|^2 =  9.894E-13

     Pert. #  1: Fermi energy shift (Ry) =     5.2642E-03    -2.0195E-28

      iter #  10 total cpu time :  1704.3 secs   av.it.:  17.0
      thresh= 9.947E-08 alpha_mix =  0.700 |ddv_scf|^2 =  1.480E-13

     Pert. #  1: Fermi energy shift (Ry) =     5.4210E-03    -8.0779E-28

      iter #  11 total cpu time :  1728.8 secs   av.it.:  16.3
      thresh= 3.847E-08 alpha_mix =  0.700 |ddv_scf|^2 =  4.757E-15

     Pert. #  1: Fermi energy shift (Ry) =     5.4915E-03    -1.0097E-28

      iter #  12 total cpu time :  1763.6 secs   av.it.:  17.6
      thresh= 6.897E-09 alpha_mix =  0.700 |ddv_scf|^2 =  6.184E-15

     Pert. #  1: Fermi energy shift (Ry) =     5.5275E-03     2.0195E-28

      iter #  13 total cpu time :  1799.7 secs   av.it.:  16.7
      thresh= 7.864E-09 alpha_mix =  0.700 |ddv_scf|^2 =  3.257E-15

     Pert. #  1: Fermi energy shift (Ry) =     5.5332E-03     2.0195E-28

      iter #  14 total cpu time :  1832.1 secs   av.it.:  16.7
      thresh= 5.707E-09 alpha_mix =  0.700 |ddv_scf|^2 =  2.694E-16

     Pert. #  1: Fermi energy shift (Ry) =     5.4464E-03     1.0097E-28

      iter #  15 total cpu time :  1862.0 secs   av.it.:  17.7
      thresh= 1.641E-09 alpha_mix =  0.700 |ddv_scf|^2 =  5.845E-16

     Pert. #  1: Fermi energy shift (Ry) =     5.5010E-03     1.0097E-28

      iter #  16 total cpu time :  1885.4 secs   av.it.:  16.7
      thresh= 2.418E-09 alpha_mix =  0.700 |ddv_scf|^2 =  3.150E-17

     End of self-consistent calculation

     Convergence has been achieved 


     Representation #   4 mode #   4

     Self-consistent Calculation

     Pert. #  1: Fermi energy shift (Ry) =    -6.7889E-02     1.0588E-21

      iter #   1 total cpu time :  2001.3 secs   av.it.:   7.0
      thresh= 1.000E-02 alpha_mix =  0.700 |ddv_scf|^2 =  2.323E-06

     Pert. #  1: Fermi energy shift (Ry) =     4.1810E-01    -9.2644E-23

      iter #   2 total cpu time :  2071.4 secs   av.it.:  16.6
      thresh= 1.524E-04 alpha_mix =  0.700 |ddv_scf|^2 =  3.908E-05

     Pert. #  1: Fermi energy shift (Ry) =     9.7718E-02    -1.0588E-22

      iter #   3 total cpu time :  2133.2 secs   av.it.:  13.7
      thresh= 6.251E-04 alpha_mix =  0.700 |ddv_scf|^2 =  2.718E-08

     Pert. #  1: Fermi energy shift (Ry) =    -1.4289E-01    -7.2378E-25

      iter #   4 total cpu time :  2202.2 secs   av.it.:  16.7
      thresh= 1.649E-05 alpha_mix =  0.700 |ddv_scf|^2 =  5.062E-09

     Pert. #  1: Fermi energy shift (Ry) =     9.8459E-02    -2.0680E-24

      iter #   5 total cpu time :  2248.9 secs   av.it.:  16.7
      thresh= 7.115E-06 alpha_mix =  0.700 |ddv_scf|^2 =  2.252E-09

     Pert. #  1: Fermi energy shift (Ry) =     1.2779E-02     6.2039E-25

      iter #   6 total cpu time :  2280.8 secs   av.it.:  16.3
      thresh= 4.745E-06 alpha_mix =  0.700 |ddv_scf|^2 =  1.287E-11

     Pert. #  1: Fermi energy shift (Ry) =     1.8564E-02     6.4623E-27

      iter #   7 total cpu time :  2313.7 secs   av.it.:  17.7
      thresh= 3.588E-07 alpha_mix =  0.700 |ddv_scf|^2 =  7.294E-12

     Pert. #  1: Fermi energy shift (Ry) =     1.4479E-02    -4.5236E-26

      iter #   8 total cpu time :  2347.7 secs   av.it.:  16.6
      thresh= 2.701E-07 alpha_mix =  0.700 |ddv_scf|^2 =  8.378E-13

     Pert. #  1: Fermi energy shift (Ry) =     1.4418E-02     2.5849E-26

      iter #   9 total cpu time :  2379.2 secs   av.it.:  17.1
      thresh= 9.153E-08 alpha_mix =  0.700 |ddv_scf|^2 =  4.233E-13

     Pert. #  1: Fermi energy shift (Ry) =     1.4258E-02     6.4623E-27

      iter #  10 total cpu time :  2406.1 secs   av.it.:  16.6
      thresh= 6.506E-08 alpha_mix =  0.700 |ddv_scf|^2 =  3.661E-14

     Pert. #  1: Fermi energy shift (Ry) =     1.3978E-02    -3.7865E-29

      iter #  11 total cpu time :  2451.4 secs   av.it.:  17.7
      thresh= 1.913E-08 alpha_mix =  0.700 |ddv_scf|^2 =  6.865E-14

     Pert. #  1: Fermi energy shift (Ry) =     1.4269E-02     5.6546E-27

      iter #  12 total cpu time :  2480.7 secs   av.it.:  16.6
      thresh= 2.620E-08 alpha_mix =  0.700 |ddv_scf|^2 =  3.010E-15

     Pert. #  1: Fermi energy shift (Ry) =     1.4103E-02    -8.0779E-28

      iter #  13 total cpu time :  2508.5 secs   av.it.:  17.6
      thresh= 5.486E-09 alpha_mix =  0.700 |ddv_scf|^2 =  2.443E-15

     Pert. #  1: Fermi energy shift (Ry) =     1.4243E-02    -2.0195E-28

      iter #  14 total cpu time :  2545.4 secs   av.it.:  16.6
      thresh= 4.943E-09 alpha_mix =  0.700 |ddv_scf|^2 =  9.728E-16

     Pert. #  1: Fermi energy shift (Ry) =     1.4185E-02    -1.7670E-28

      iter #  15 total cpu time :  2566.8 secs   av.it.:  16.6
      thresh= 3.119E-09 alpha_mix =  0.700 |ddv_scf|^2 =  5.669E-17

     End of self-consistent calculation

     Convergence has been achieved 


     Representation #   5 mode #   5

     Self-consistent Calculation

     Pert. #  1: Fermi energy shift (Ry) =    -1.0379E+00     0.0000E+00

      iter #   1 total cpu time :  2674.6 secs   av.it.:   6.6
      thresh= 1.000E-02 alpha_mix =  0.700 |ddv_scf|^2 =  7.900E-07

     Pert. #  1: Fermi energy shift (Ry) =     3.3929E+00     0.0000E+00

      iter #   2 total cpu time :  2728.0 secs   av.it.:  17.0
      thresh= 8.888E-05 alpha_mix =  0.700 |ddv_scf|^2 =  8.146E-06

     Pert. #  1: Fermi energy shift (Ry) =     2.4538E-05     0.0000E+00

      iter #   3 total cpu time :  2760.9 secs   av.it.:  14.7
      thresh= 2.854E-04 alpha_mix =  0.700 |ddv_scf|^2 =  7.951E-08

     Pert. #  1: Fermi energy shift (Ry) =    -2.0304E-01     0.0000E+00

      iter #   4 total cpu time :  2812.6 secs   av.it.:  15.4
      thresh= 2.820E-05 alpha_mix =  0.700 |ddv_scf|^2 =  1.306E-08

     Pert. #  1: Fermi energy shift (Ry) =     8.6746E-02     0.0000E+00

      iter #   5 total cpu time :  2858.6 secs   av.it.:  16.4
      thresh= 1.143E-05 alpha_mix =  0.700 |ddv_scf|^2 =  2.294E-09

     Pert. #  1: Fermi energy shift (Ry) =     1.3494E-02     0.0000E+00

      iter #   6 total cpu time :  2897.6 secs   av.it.:  16.3
      thresh= 4.790E-06 alpha_mix =  0.700 |ddv_scf|^2 =  5.189E-11

     Pert. #  1: Fermi energy shift (Ry) =     2.6739E-03     0.0000E+00

      iter #   7 total cpu time :  2926.8 secs   av.it.:  16.9
      thresh= 7.204E-07 alpha_mix =  0.700 |ddv_scf|^2 =  1.089E-12

     Pert. #  1: Fermi energy shift (Ry) =     2.5129E-03     0.0000E+00

      iter #   8 total cpu time :  2963.1 secs   av.it.:  17.7
      thresh= 1.044E-07 alpha_mix =  0.700 |ddv_scf|^2 =  7.917E-13

     Pert. #  1: Fermi energy shift (Ry) =     2.2618E-03     0.0000E+00

      iter #   9 total cpu time :  2999.8 secs   av.it.:  16.7
      thresh= 8.898E-08 alpha_mix =  0.700 |ddv_scf|^2 =  1.546E-13

     Pert. #  1: Fermi energy shift (Ry) =     2.9801E-03     0.0000E+00

      iter #  10 total cpu time :  3027.8 secs   av.it.:  16.6
      thresh= 3.932E-08 alpha_mix =  0.700 |ddv_scf|^2 =  6.301E-14

     Pert. #  1: Fermi energy shift (Ry) =     2.1380E-03     0.0000E+00

      iter #  11 total cpu time :  3060.0 secs   av.it.:  17.6
      thresh= 2.510E-08 alpha_mix =  0.700 |ddv_scf|^2 =  8.461E-14

     Pert. #  1: Fermi energy shift (Ry) =     2.5391E-03     0.0000E+00

      iter #  12 total cpu time :  3091.6 secs   av.it.:  15.9
      thresh= 2.909E-08 alpha_mix =  0.700 |ddv_scf|^2 =  1.558E-15

     Pert. #  1: Fermi energy shift (Ry) =     2.5391E-03     0.0000E+00

      iter #  13 total cpu time :  3125.5 secs   av.it.:  17.6
      thresh= 3.947E-09 alpha_mix =  0.700 |ddv_scf|^2 =  8.817E-16

     Pert. #  1: Fermi energy shift (Ry) =     2.5789E-03     0.0000E+00

      iter #  14 total cpu time :  3152.3 secs   av.it.:  16.7
      thresh= 2.969E-09 alpha_mix =  0.700 |ddv_scf|^2 =  2.802E-16

     Pert. #  1: Fermi energy shift (Ry) =     2.6024E-03     0.0000E+00

      iter #  15 total cpu time :  3185.6 secs   av.it.:  17.3
      thresh= 1.674E-09 alpha_mix =  0.700 |ddv_scf|^2 =  1.828E-16

     Pert. #  1: Fermi energy shift (Ry) =     2.5828E-03     0.0000E+00

      iter #  16 total cpu time :  3208.4 secs   av.it.:  16.6
      thresh= 1.352E-09 alpha_mix =  0.700 |ddv_scf|^2 =  4.504E-17

     End of self-consistent calculation

     Convergence has been achieved 


     Representation #   6 mode #   6

     Self-consistent Calculation

     Pert. #  1: Fermi energy shift (Ry) =     5.3148E-01     0.0000E+00

      iter #   1 total cpu time :  3255.9 secs   av.it.:   6.7
      thresh= 1.000E-02 alpha_mix =  0.700 |ddv_scf|^2 =  1.096E-06

     Pert. #  1: Fermi energy shift (Ry) =    -1.7229E+00     0.0000E+00

      iter #   2 total cpu time :  3349.6 secs   av.it.:  16.6
      thresh= 1.047E-04 alpha_mix =  0.700 |ddv_scf|^2 =  1.566E-05

     Pert. #  1: Fermi energy shift (Ry) =    -2.1299E-01     0.0000E+00

      iter #   3 total cpu time :  3404.4 secs   av.it.:  13.9
      thresh= 3.957E-04 alpha_mix =  0.700 |ddv_scf|^2 =  4.466E-08

     Pert. #  1: Fermi energy shift (Ry) =     1.3462E-01     0.0000E+00

      iter #   4 total cpu time :  3450.8 secs   av.it.:  16.4
      thresh= 2.113E-05 alpha_mix =  0.700 |ddv_scf|^2 =  4.569E-09

     Pert. #  1: Fermi energy shift (Ry) =    -1.0879E-01     0.0000E+00

      iter #   5 total cpu time :  3491.4 secs   av.it.:  17.0
      thresh= 6.760E-06 alpha_mix =  0.700 |ddv_scf|^2 =  2.879E-09

     Pert. #  1: Fermi energy shift (Ry) =     3.7063E-03     0.0000E+00

      iter #   6 total cpu time :  3525.5 secs   av.it.:  16.4
      thresh= 5.366E-06 alpha_mix =  0.700 |ddv_scf|^2 =  1.770E-10

     Pert. #  1: Fermi energy shift (Ry) =     3.6923E-03     0.0000E+00

      iter #   7 total cpu time :  3568.2 secs   av.it.:  15.9
      thresh= 1.331E-06 alpha_mix =  0.700 |ddv_scf|^2 =  1.172E-11

     Pert. #  1: Fermi energy shift (Ry) =    -1.1190E-03     0.0000E+00

      iter #   8 total cpu time :  3603.0 secs   av.it.:  16.7
      thresh= 3.423E-07 alpha_mix =  0.700 |ddv_scf|^2 =  3.274E-13

     Pert. #  1: Fermi energy shift (Ry) =    -1.0614E-03     0.0000E+00

      iter #   9 total cpu time :  3635.4 secs   av.it.:  17.7
      thresh= 5.722E-08 alpha_mix =  0.700 |ddv_scf|^2 =  8.853E-14

     Pert. #  1: Fermi energy shift (Ry) =    -1.1261E-03     0.0000E+00

      iter #  10 total cpu time :  3666.7 secs   av.it.:  16.7
      thresh= 2.975E-08 alpha_mix =  0.700 |ddv_scf|^2 =  3.588E-14

     Pert. #  1: Fermi energy shift (Ry) =    -1.3483E-03     0.0000E+00

      iter #  11 total cpu time :  3693.1 secs   av.it.:  16.9
      thresh= 1.894E-08 alpha_mix =  0.700 |ddv_scf|^2 =  8.862E-15

     Pert. #  1: Fermi energy shift (Ry) =    -1.4678E-03     0.0000E+00

      iter #  12 total cpu time :  3721.7 secs   av.it.:  16.9
      thresh= 9.414E-09 alpha_mix =  0.700 |ddv_scf|^2 =  3.718E-15

     Pert. #  1: Fermi energy shift (Ry) =    -1.3477E-03     0.0000E+00

      iter #  13 total cpu time :  3750.1 secs   av.it.:  17.6
      thresh= 6.097E-09 alpha_mix =  0.700 |ddv_scf|^2 =  9.982E-15

     Pert. #  1: Fermi energy shift (Ry) =    -1.3951E-03     0.0000E+00

      iter #  14 total cpu time :  3769.2 secs   av.it.:  15.3
      thresh= 9.991E-09 alpha_mix =  0.700 |ddv_scf|^2 =  1.216E-17

     End of self-consistent calculation

     Convergence has been achieved 


     Representation #   7 mode #   7

     Self-consistent Calculation

     Pert. #  1: Fermi energy shift (Ry) =     4.3213E-01    -2.1176E-22

      iter #   1 total cpu time :  3861.4 secs   av.it.:   7.0
      thresh= 1.000E-02 alpha_mix =  0.700 |ddv_scf|^2 =  9.747E-08

     Pert. #  1: Fermi energy shift (Ry) =    -1.3862E+00    -3.3087E-24

      iter #   2 total cpu time :  3895.0 secs   av.it.:  18.6
      thresh= 3.122E-05 alpha_mix =  0.700 |ddv_scf|^2 =  5.004E-07

     Pert. #  1: Fermi energy shift (Ry) =     5.5911E-01     3.3087E-24

      iter #   3 total cpu time :  3943.6 secs   av.it.:  16.6
      thresh= 7.074E-05 alpha_mix =  0.700 |ddv_scf|^2 =  6.989E-08

     Pert. #  1: Fermi energy shift (Ry) =     6.6892E-02     1.2408E-24

      iter #   4 total cpu time :  4036.9 secs   av.it.:  16.1
      thresh= 2.644E-05 alpha_mix =  0.700 |ddv_scf|^2 =  9.749E-10

     Pert. #  1: Fermi energy shift (Ry) =     4.5817E-02    -4.1359E-25

      iter #   5 total cpu time :  4131.6 secs   av.it.:  16.6
      thresh= 3.122E-06 alpha_mix =  0.700 |ddv_scf|^2 =  8.403E-10

     Pert. #  1: Fermi energy shift (Ry) =     2.5942E-02     3.1019E-25

      iter #   6 total cpu time :  4160.5 secs   av.it.:  15.7
      thresh= 2.899E-06 alpha_mix =  0.700 |ddv_scf|^2 =  4.148E-11

     Pert. #  1: Fermi energy shift (Ry) =     4.1558E-02     5.1699E-26

      iter #   7 total cpu time :  4195.8 secs   av.it.:  17.0
      thresh= 6.440E-07 alpha_mix =  0.700 |ddv_scf|^2 =  4.143E-12

     Pert. #  1: Fermi energy shift (Ry) =     3.7270E-02     1.2925E-26

      iter #   8 total cpu time :  4222.3 secs   av.it.:  17.7
      thresh= 2.036E-07 alpha_mix =  0.700 |ddv_scf|^2 =  1.367E-12

     Pert. #  1: Fermi energy shift (Ry) =     3.8034E-02     1.5146E-28

      iter #   9 total cpu time :  4258.1 secs   av.it.:  16.9
      thresh= 1.169E-07 alpha_mix =  0.700 |ddv_scf|^2 =  1.061E-13

     Pert. #  1: Fermi energy shift (Ry) =     3.8508E-02    -1.2117E-27

      iter #  10 total cpu time :  4284.1 secs   av.it.:  17.4
      thresh= 3.257E-08 alpha_mix =  0.700 |ddv_scf|^2 =  1.523E-14

     Pert. #  1: Fermi energy shift (Ry) =     3.8729E-02    -8.0779E-28

      iter #  11 total cpu time :  4314.1 secs   av.it.:  17.9
      thresh= 1.234E-08 alpha_mix =  0.700 |ddv_scf|^2 =  4.099E-14

     Pert. #  1: Fermi energy shift (Ry) =     3.8862E-02     1.2117E-27

      iter #  12 total cpu time :  4342.1 secs   av.it.:  15.3
      thresh= 2.025E-08 alpha_mix =  0.700 |ddv_scf|^2 =  1.741E-14

     Pert. #  1: Fermi energy shift (Ry) =     3.8720E-02    -6.0585E-28

      iter #  13 total cpu time :  4372.6 secs   av.it.:  15.9
      thresh= 1.319E-08 alpha_mix =  0.700 |ddv_scf|^2 =  1.012E-15

     Pert. #  1: Fermi energy shift (Ry) =     3.8668E-02    -3.7865E-29

      iter #  14 total cpu time :  4394.2 secs   av.it.:  16.7
      thresh= 3.181E-09 alpha_mix =  0.700 |ddv_scf|^2 =  1.272E-17

     End of self-consistent calculation

     Convergence has been achieved 


     Representation #   8 mode #   8

     Self-consistent Calculation

     Pert. #  1: Fermi energy shift (Ry) =    -4.3054E-01     9.9262E-24

      iter #   1 total cpu time :  4444.9 secs   av.it.:   7.0
      thresh= 1.000E-02 alpha_mix =  0.700 |ddv_scf|^2 =  1.784E-07

     Pert. #  1: Fermi energy shift (Ry) =     2.0989E+00     1.6544E-24

      iter #   2 total cpu time :  4486.0 secs   av.it.:  18.4
      thresh= 4.223E-05 alpha_mix =  0.700 |ddv_scf|^2 =  1.330E-06

     Pert. #  1: Fermi energy shift (Ry) =    -4.5311E-01     4.9631E-24

      iter #   3 total cpu time :  4539.2 secs   av.it.:  16.0
      thresh= 1.153E-04 alpha_mix =  0.700 |ddv_scf|^2 =  1.001E-07

     Pert. #  1: Fermi energy shift (Ry) =    -1.4957E-01    -2.4815E-24

      iter #   4 total cpu time :  4578.7 secs   av.it.:  16.0
      thresh= 3.163E-05 alpha_mix =  0.700 |ddv_scf|^2 =  1.165E-08

     Pert. #  1: Fermi energy shift (Ry) =    -4.3012E-03    -1.0340E-25

      iter #   5 total cpu time :  4631.4 secs   av.it.:  15.4
      thresh= 1.079E-05 alpha_mix =  0.700 |ddv_scf|^2 =  2.569E-10

     Pert. #  1: Fermi energy shift (Ry) =     1.8859E-02     5.1699E-26

      iter #   6 total cpu time :  4665.2 secs   av.it.:  17.7
      thresh= 1.603E-06 alpha_mix =  0.700 |ddv_scf|^2 =  4.849E-11

     Pert. #  1: Fermi energy shift (Ry) =     7.1778E-03    -5.1699E-26

      iter #   7 total cpu time :  4693.7 secs   av.it.:  16.9
      thresh= 6.963E-07 alpha_mix =  0.700 |ddv_scf|^2 =  3.617E-12

     Pert. #  1: Fermi energy shift (Ry) =     1.8392E-03    -1.6156E-27

      iter #   8 total cpu time :  4737.2 secs   av.it.:  18.6
      thresh= 1.902E-07 alpha_mix =  0.700 |ddv_scf|^2 =  5.251E-12

     Pert. #  1: Fermi energy shift (Ry) =     5.4466E-03    -1.2925E-26

      iter #   9 total cpu time :  4764.4 secs   av.it.:  16.9
      thresh= 2.291E-07 alpha_mix =  0.700 |ddv_scf|^2 =  3.631E-13

     Pert. #  1: Fermi energy shift (Ry) =     6.0880E-03    -8.0779E-28

      iter #  10 total cpu time :  4799.5 secs   av.it.:  16.0
      thresh= 6.026E-08 alpha_mix =  0.700 |ddv_scf|^2 =  3.473E-13

     Pert. #  1: Fermi energy shift (Ry) =     5.5936E-03    -4.8468E-27

      iter #  11 total cpu time :  4825.9 secs   av.it.:  15.3
      thresh= 5.893E-08 alpha_mix =  0.700 |ddv_scf|^2 =  2.613E-14

     Pert. #  1: Fermi energy shift (Ry) =     4.6423E-03     1.6156E-27

      iter #  12 total cpu time :  4946.3 secs   av.it.:  18.3
      thresh= 1.616E-08 alpha_mix =  0.700 |ddv_scf|^2 =  8.336E-14

     Pert. #  1: Fermi energy shift (Ry) =     5.1966E-03    -1.6156E-27

      iter #  13 total cpu time :  4979.7 secs   av.it.:  16.4
      thresh= 2.887E-08 alpha_mix =  0.700 |ddv_scf|^2 =  3.784E-15

     Pert. #  1: Fermi energy shift (Ry) =     5.2689E-03     1.5146E-28

      iter #  14 total cpu time :  5006.5 secs   av.it.:  16.7
      thresh= 6.152E-09 alpha_mix =  0.700 |ddv_scf|^2 =  1.374E-16

     Pert. #  1: Fermi energy shift (Ry) =     5.2868E-03     3.7865E-29

      iter #  15 total cpu time :  5042.1 secs   av.it.:  18.1
      thresh= 1.172E-09 alpha_mix =  0.700 |ddv_scf|^2 =  1.335E-16

     Pert. #  1: Fermi energy shift (Ry) =     5.2774E-03    -2.0195E-28

      iter #  16 total cpu time :  5070.0 secs   av.it.:  16.7
      thresh= 1.155E-09 alpha_mix =  0.700 |ddv_scf|^2 =  2.643E-18

     End of self-consistent calculation

     Convergence has been achieved 


     Representation #   9 mode #   9

     Self-consistent Calculation

     Pert. #  1: Fermi energy shift (Ry) =     1.8070E-20     1.5673E-38

      iter #   1 total cpu time :  5136.7 secs   av.it.:   6.0
      thresh= 1.000E-02 alpha_mix =  0.700 |ddv_scf|^2 =  1.786E-08

     Pert. #  1: Fermi energy shift (Ry) =    -4.5175E-21     2.4489E-40

      iter #   2 total cpu time :  5175.2 secs   av.it.:  17.4
      thresh= 1.337E-05 alpha_mix =  0.700 |ddv_scf|^2 =  4.895E-09

     Pert. #  1: Fermi energy shift (Ry) =     4.5175E-21     3.0612E-41

      iter #   3 total cpu time :  5237.4 secs   av.it.:  17.1
      thresh= 6.996E-06 alpha_mix =  0.700 |ddv_scf|^2 =  7.053E-12

     Pert. #  1: Fermi energy shift (Ry) =     2.2588E-21     1.9132E-42

      iter #   4 total cpu time :  5297.0 secs   av.it.:  17.7
      thresh= 2.656E-07 alpha_mix =  0.700 |ddv_scf|^2 =  4.885E-13

     Pert. #  1: Fermi energy shift (Ry) =     2.2588E-21     2.3915E-43

      iter #   5 total cpu time :  5338.5 secs   av.it.:  17.7
      thresh= 6.989E-08 alpha_mix =  0.700 |ddv_scf|^2 =  3.474E-14

     Pert. #  1: Fermi energy shift (Ry) =     2.2588E-21     2.3915E-43

      iter #   6 total cpu time :  5367.7 secs   av.it.:  17.7
      thresh= 1.864E-08 alpha_mix =  0.700 |ddv_scf|^2 =  1.862E-15

     Pert. #  1: Fermi energy shift (Ry) =     2.2588E-21    -1.8684E-45

      iter #   7 total cpu time :  5387.5 secs   av.it.:  17.7
      thresh= 4.315E-09 alpha_mix =  0.700 |ddv_scf|^2 =  7.639E-17

     End of self-consistent calculation

     Convergence has been achieved 


     Representation #  10 mode #  10

     Self-consistent Calculation

     Pert. #  1: Fermi energy shift (Ry) =     0.0000E+00     0.0000E+00

      iter #   1 total cpu time :  5456.0 secs   av.it.:   6.0
      thresh= 1.000E-02 alpha_mix =  0.700 |ddv_scf|^2 =  7.661E-09

     Pert. #  1: Fermi energy shift (Ry) =     0.0000E+00     0.0000E+00

      iter #   2 total cpu time :  5498.6 secs   av.it.:  17.7
      thresh= 8.753E-06 alpha_mix =  0.700 |ddv_scf|^2 =  1.827E-09

     Pert. #  1: Fermi energy shift (Ry) =     0.0000E+00     0.0000E+00

      iter #   3 total cpu time :  5533.0 secs   av.it.:  17.7
      thresh= 4.275E-06 alpha_mix =  0.700 |ddv_scf|^2 =  8.746E-12

     Pert. #  1: Fermi energy shift (Ry) =     0.0000E+00     0.0000E+00

      iter #   4 total cpu time :  5565.7 secs   av.it.:  17.9
      thresh= 2.957E-07 alpha_mix =  0.700 |ddv_scf|^2 =  2.503E-13

     Pert. #  1: Fermi energy shift (Ry) =     0.0000E+00     0.0000E+00

      iter #   5 total cpu time :  5611.9 secs   av.it.:  17.7
      thresh= 5.003E-08 alpha_mix =  0.700 |ddv_scf|^2 =  4.428E-15

     Pert. #  1: Fermi energy shift (Ry) =     0.0000E+00     0.0000E+00

      iter #   6 total cpu time :  5647.8 secs   av.it.:  18.0
      thresh= 6.655E-09 alpha_mix =  0.700 |ddv_scf|^2 =  1.166E-16

     Pert. #  1: Fermi energy shift (Ry) =     0.0000E+00     0.0000E+00

      iter #   7 total cpu time :  5671.2 secs   av.it.:  18.3
      thresh= 1.080E-09 alpha_mix =  0.700 |ddv_scf|^2 =  9.177E-18

     End of self-consistent calculation

     Convergence has been achieved 


     Representation #  11 mode #  11

     Self-consistent Calculation

     Pert. #  1: Fermi energy shift (Ry) =    -5.6469E-22     6.2693E-38

      iter #   1 total cpu time :  5723.4 secs   av.it.:   6.0
      thresh= 1.000E-02 alpha_mix =  0.700 |ddv_scf|^2 =  1.856E-08

     Pert. #  1: Fermi energy shift (Ry) =     5.6469E-22     3.8265E-42

      iter #   2 total cpu time :  5756.7 secs   av.it.:  17.6
      thresh= 1.362E-05 alpha_mix =  0.700 |ddv_scf|^2 =  5.474E-09

     Pert. #  1: Fermi energy shift (Ry) =     2.8234E-22     3.0612E-41

      iter #   3 total cpu time :  5787.0 secs   av.it.:  17.1
      thresh= 7.399E-06 alpha_mix =  0.700 |ddv_scf|^2 =  7.241E-12

     Pert. #  1: Fermi energy shift (Ry) =     1.1294E-21    -4.7831E-43

      iter #   4 total cpu time :  5822.6 secs   av.it.:  17.7
      thresh= 2.691E-07 alpha_mix =  0.700 |ddv_scf|^2 =  4.752E-13

     Pert. #  1: Fermi energy shift (Ry) =    -5.6469E-22     4.7831E-43

      iter #   5 total cpu time :  5864.3 secs   av.it.:  17.7
      thresh= 6.893E-08 alpha_mix =  0.700 |ddv_scf|^2 =  3.192E-14

     Pert. #  1: Fermi energy shift (Ry) =    -5.6469E-22     1.1958E-43

      iter #   6 total cpu time :  5893.4 secs   av.it.:  17.7
      thresh= 1.787E-08 alpha_mix =  0.700 |ddv_scf|^2 =  1.501E-15

     Pert. #  1: Fermi energy shift (Ry) =    -5.6469E-22     7.4736E-45

      iter #   7 total cpu time :  5915.3 secs   av.it.:  17.7
      thresh= 3.874E-09 alpha_mix =  0.700 |ddv_scf|^2 =  6.427E-17

     End of self-consistent calculation

     Convergence has been achieved 


     Representation #  12 modes #  12  13

     Self-consistent Calculation

     Pert. #  1: Fermi energy shift (Ry) =     0.0000E+00     0.0000E+00
     Pert. #  2: Fermi energy shift (Ry) =    -1.1565E-18     0.0000E+00

      iter #   1 total cpu time :  5994.9 secs   av.it.:   6.3
      thresh= 1.000E-02 alpha_mix =  0.700 |ddv_scf|^2 =  3.092E-08

     Pert. #  1: Fermi energy shift (Ry) =     9.2519E-18     0.0000E+00
     Pert. #  2: Fermi energy shift (Ry) =    -9.2519E-18     0.0000E+00

      iter #   2 total cpu time :  6054.5 secs   av.it.:  20.1
      thresh= 1.758E-05 alpha_mix =  0.700 |ddv_scf|^2 =  1.007E-06

     Pert. #  1: Fermi energy shift (Ry) =     2.3130E-18     0.0000E+00
     Pert. #  2: Fermi energy shift (Ry) =     2.3130E-18     0.0000E+00

      iter #   3 total cpu time :  6124.9 secs   av.it.:  17.0
      thresh= 1.003E-04 alpha_mix =  0.700 |ddv_scf|^2 =  4.369E-08

     Pert. #  1: Fermi energy shift (Ry) =     0.0000E+00     0.0000E+00
     Pert. #  2: Fermi energy shift (Ry) =     1.4456E-19     0.0000E+00

      iter #   4 total cpu time :  6181.7 secs   av.it.:  17.7
      thresh= 2.090E-05 alpha_mix =  0.700 |ddv_scf|^2 =  1.817E-10

     Pert. #  1: Fermi energy shift (Ry) =     0.0000E+00     0.0000E+00
     Pert. #  2: Fermi energy shift (Ry) =     7.2280E-20     0.0000E+00

      iter #   5 total cpu time :  6240.6 secs   av.it.:  18.9
      thresh= 1.348E-06 alpha_mix =  0.700 |ddv_scf|^2 =  2.390E-11

     Pert. #  1: Fermi energy shift (Ry) =    -1.8070E-20     0.0000E+00
     Pert. #  2: Fermi energy shift (Ry) =     9.0350E-21     0.0000E+00

      iter #   6 total cpu time :  6291.8 secs   av.it.:  18.6
      thresh= 4.889E-07 alpha_mix =  0.700 |ddv_scf|^2 =  2.036E-12

     Pert. #  1: Fermi energy shift (Ry) =     4.5175E-20     0.0000E+00
     Pert. #  2: Fermi energy shift (Ry) =    -2.7105E-20     0.0000E+00

      iter #   7 total cpu time :  6338.6 secs   av.it.:  19.0
      thresh= 1.427E-07 alpha_mix =  0.700 |ddv_scf|^2 =  3.819E-13

     Pert. #  1: Fermi energy shift (Ry) =     9.0350E-21     0.0000E+00
     Pert. #  2: Fermi energy shift (Ry) =    -9.0350E-21     0.0000E+00

      iter #   8 total cpu time :  6402.2 secs   av.it.:  18.7
      thresh= 6.180E-08 alpha_mix =  0.700 |ddv_scf|^2 =  5.066E-14

     Pert. #  1: Fermi energy shift (Ry) =     0.0000E+00     0.0000E+00
     Pert. #  2: Fermi energy shift (Ry) =    -9.0350E-21     0.0000E+00

      iter #   9 total cpu time :  6474.4 secs   av.it.:  18.7
      thresh= 2.251E-08 alpha_mix =  0.700 |ddv_scf|^2 =  2.498E-15

     Pert. #  1: Fermi energy shift (Ry) =     1.3553E-20     0.0000E+00
     Pert. #  2: Fermi energy shift (Ry) =     4.5175E-21     0.0000E+00

      iter #  10 total cpu time :  6538.8 secs   av.it.:  19.7
      thresh= 4.998E-09 alpha_mix =  0.700 |ddv_scf|^2 =  5.693E-15

     Pert. #  1: Fermi energy shift (Ry) =     4.5175E-21     0.0000E+00
     Pert. #  2: Fermi energy shift (Ry) =    -9.0350E-21     0.0000E+00

      iter #  11 total cpu time :  6593.5 secs   av.it.:  18.0
      thresh= 7.545E-09 alpha_mix =  0.700 |ddv_scf|^2 =  8.993E-17

     End of self-consistent calculation

     Convergence has been achieved 


     Representation #  13 modes #  14  15

     Self-consistent Calculation

     Pert. #  1: Fermi energy shift (Ry) =     5.7824E-18    -1.5673E-38
     Pert. #  2: Fermi energy shift (Ry) =     2.3130E-18     1.9592E-39

      iter #   1 total cpu time :  6678.0 secs   av.it.:   6.6
      thresh= 1.000E-02 alpha_mix =  0.700 |ddv_scf|^2 =  3.037E-08

     Pert. #  1: Fermi energy shift (Ry) =    -1.0177E-16    -7.6530E-41
     Pert. #  2: Fermi energy shift (Ry) =     0.0000E+00     7.6530E-42

      iter #   2 total cpu time :  6752.4 secs   av.it.:  20.1
      thresh= 1.743E-05 alpha_mix =  0.700 |ddv_scf|^2 =  9.093E-07

     Pert. #  1: Fermi energy shift (Ry) =     2.3130E-17    -1.2245E-40
     Pert. #  2: Fermi energy shift (Ry) =    -1.1565E-18     1.5306E-41

      iter #   3 total cpu time :  6828.0 secs   av.it.:  17.1
      thresh= 9.536E-05 alpha_mix =  0.700 |ddv_scf|^2 =  5.479E-08

     Pert. #  1: Fermi energy shift (Ry) =     5.7824E-19     1.2245E-40
     Pert. #  2: Fermi energy shift (Ry) =    -3.6140E-20    -7.6530E-41

      iter #   4 total cpu time :  6917.7 secs   av.it.:  17.7
      thresh= 2.341E-05 alpha_mix =  0.700 |ddv_scf|^2 =  1.307E-10

     Pert. #  1: Fermi energy shift (Ry) =    -6.5052E-19    -1.9132E-42
     Pert. #  2: Fermi energy shift (Ry) =     0.0000E+00    -1.9132E-42

      iter #   5 total cpu time :  6994.4 secs   av.it.:  19.6
      thresh= 1.143E-06 alpha_mix =  0.700 |ddv_scf|^2 =  6.922E-11

     Pert. #  1: Fermi energy shift (Ry) =     7.2280E-20    -4.7831E-42
     Pert. #  2: Fermi energy shift (Ry) =    -9.0350E-21     2.3915E-43

      iter #   6 total cpu time :  7060.6 secs   av.it.:  17.9
      thresh= 8.320E-07 alpha_mix =  0.700 |ddv_scf|^2 =  1.682E-12

     Pert. #  1: Fermi energy shift (Ry) =    -3.1623E-20     2.3915E-43
     Pert. #  2: Fermi energy shift (Ry) =    -1.3553E-20    -2.3915E-43

      iter #   7 total cpu time :  7107.0 secs   av.it.:  18.6
      thresh= 1.297E-07 alpha_mix =  0.700 |ddv_scf|^2 =  1.799E-14

     Pert. #  1: Fermi energy shift (Ry) =    -4.9693E-20    -2.9894E-44
     Pert. #  2: Fermi energy shift (Ry) =     0.0000E+00    -2.9894E-44

      iter #   8 total cpu time :  7157.7 secs   av.it.:  19.6
      thresh= 1.341E-08 alpha_mix =  0.700 |ddv_scf|^2 =  1.213E-14

     Pert. #  1: Fermi energy shift (Ry) =    -3.6140E-20     1.8684E-44
     Pert. #  2: Fermi energy shift (Ry) =     2.2588E-21     0.0000E+00

      iter #   9 total cpu time :  7214.5 secs   av.it.:  19.0
      thresh= 1.101E-08 alpha_mix =  0.700 |ddv_scf|^2 =  1.686E-15

     Pert. #  1: Fermi energy shift (Ry) =    -3.1623E-20     5.9789E-44
     Pert. #  2: Fermi energy shift (Ry) =    -6.7763E-21    -3.7368E-44

      iter #  10 total cpu time :  7263.6 secs   av.it.:  19.6
      thresh= 4.106E-09 alpha_mix =  0.700 |ddv_scf|^2 =  8.769E-16

     Pert. #  1: Fermi energy shift (Ry) =    -2.7105E-20     7.4736E-45
     Pert. #  2: Fermi energy shift (Ry) =     4.5175E-21    -7.4736E-45

      iter #  11 total cpu time :  7314.3 secs   av.it.:  19.0
      thresh= 2.961E-09 alpha_mix =  0.700 |ddv_scf|^2 =  3.496E-16

     Pert. #  1: Fermi energy shift (Ry) =    -1.3553E-20    -1.4947E-44
     Pert. #  2: Fermi energy shift (Ry) =     0.0000E+00    -1.4947E-44

      iter #  12 total cpu time :  7373.4 secs   av.it.:  18.1
      thresh= 1.870E-09 alpha_mix =  0.700 |ddv_scf|^2 =  1.280E-17

     End of self-consistent calculation

     Convergence has been achieved 


     Representation #  14 modes #  16  17

     Self-consistent Calculation

     Pert. #  1: Fermi energy shift (Ry) =     2.8912E-19     3.1347E-38
     Pert. #  2: Fermi energy shift (Ry) =    -7.2280E-20     1.2539E-37

      iter #   1 total cpu time :  7452.6 secs   av.it.:   6.0
      thresh= 1.000E-02 alpha_mix =  0.700 |ddv_scf|^2 =  3.822E-09

     Pert. #  1: Fermi energy shift (Ry) =     2.3130E-18     1.8367E-40
     Pert. #  2: Fermi energy shift (Ry) =     2.8912E-19     0.0000E+00

      iter #   2 total cpu time :  7514.7 secs   av.it.:  19.6
      thresh= 6.182E-06 alpha_mix =  0.700 |ddv_scf|^2 =  4.664E-09

     Pert. #  1: Fermi energy shift (Ry) =    -9.2519E-18    -6.1224E-41
     Pert. #  2: Fermi energy shift (Ry) =     5.7824E-18     5.3571E-41

      iter #   3 total cpu time :  7588.2 secs   av.it.:  19.5
      thresh= 6.829E-06 alpha_mix =  0.700 |ddv_scf|^2 =  3.362E-08

     Pert. #  1: Fermi energy shift (Ry) =     7.2280E-20     9.1835E-41
     Pert. #  2: Fermi energy shift (Ry) =    -1.8070E-19    -6.1224E-41

      iter #   4 total cpu time :  7664.4 secs   av.it.:  17.1
      thresh= 1.834E-05 alpha_mix =  0.700 |ddv_scf|^2 =  7.873E-11

     Pert. #  1: Fermi energy shift (Ry) =    -1.0842E-19     3.8265E-42
     Pert. #  2: Fermi energy shift (Ry) =     3.6140E-20    -4.7831E-42

      iter #   5 total cpu time :  7743.8 secs   av.it.:  18.4
      thresh= 8.873E-07 alpha_mix =  0.700 |ddv_scf|^2 =  1.129E-12

     Pert. #  1: Fermi energy shift (Ry) =    -7.2280E-20    -1.4349E-42
     Pert. #  2: Fermi energy shift (Ry) =     3.6140E-20     9.5662E-43

      iter #   6 total cpu time :  7835.7 secs   av.it.:  19.0
      thresh= 1.062E-07 alpha_mix =  0.700 |ddv_scf|^2 =  6.634E-13

     Pert. #  1: Fermi energy shift (Ry) =     1.8070E-20    -2.3915E-42
     Pert. #  2: Fermi energy shift (Ry) =    -9.9385E-20     9.5662E-43

      iter #   7 total cpu time :  7916.4 secs   av.it.:  18.6
      thresh= 8.145E-08 alpha_mix =  0.700 |ddv_scf|^2 =  7.211E-14

     Pert. #  1: Fermi energy shift (Ry) =     0.0000E+00    -3.5873E-43
     Pert. #  2: Fermi energy shift (Ry) =     3.6140E-20     3.5873E-43

      iter #   8 total cpu time :  8000.0 secs   av.it.:  18.1
      thresh= 2.685E-08 alpha_mix =  0.700 |ddv_scf|^2 =  1.540E-15

     Pert. #  1: Fermi energy shift (Ry) =    -3.6140E-20     2.2421E-44
     Pert. #  2: Fermi energy shift (Ry) =     0.0000E+00    -1.8684E-44

      iter #   9 total cpu time :  8087.3 secs   av.it.:  19.7
      thresh= 3.925E-09 alpha_mix =  0.700 |ddv_scf|^2 =  9.030E-17

     End of self-consistent calculation

     Convergence has been achieved 


     Representation #  15 modes #  18  19

     Self-consistent Calculation

     Pert. #  1: Fermi energy shift (Ry) =     0.0000E+00    -3.6048E-37
     Pert. #  2: Fermi energy shift (Ry) =     0.0000E+00    -2.2726E-37

      iter #   1 total cpu time :  8196.5 secs   av.it.:   7.2
      thresh= 1.000E-02 alpha_mix =  0.700 |ddv_scf|^2 =  6.452E-08

     Pert. #  1: Fermi energy shift (Ry) =    -5.5511E-17     0.0000E+00
     Pert. #  2: Fermi energy shift (Ry) =    -9.2519E-18    -1.1020E-39

      iter #   2 total cpu time :  8265.3 secs   av.it.:  20.5
      thresh= 2.540E-05 alpha_mix =  0.700 |ddv_scf|^2 =  2.529E-06

     Pert. #  1: Fermi energy shift (Ry) =     6.9389E-18    -9.7958E-40
     Pert. #  2: Fermi energy shift (Ry) =    -2.3130E-18     5.3877E-39

      iter #   3 total cpu time :  8337.9 secs   av.it.:  16.9
      thresh= 1.590E-04 alpha_mix =  0.700 |ddv_scf|^2 =  6.209E-08

     Pert. #  1: Fermi energy shift (Ry) =    -1.4456E-19     6.1224E-41
     Pert. #  2: Fermi energy shift (Ry) =     0.0000E+00    -1.0714E-40

      iter #   4 total cpu time :  8420.4 secs   av.it.:  17.7
      thresh= 2.492E-05 alpha_mix =  0.700 |ddv_scf|^2 =  1.477E-10

     Pert. #  1: Fermi energy shift (Ry) =    -3.6140E-20    -2.2959E-41
     Pert. #  2: Fermi energy shift (Ry) =     3.6140E-20    -5.7397E-41

      iter #   5 total cpu time :  8480.8 secs   av.it.:  19.1
      thresh= 1.215E-06 alpha_mix =  0.700 |ddv_scf|^2 =  5.773E-11

     Pert. #  1: Fermi energy shift (Ry) =     0.0000E+00    -1.1001E-41
     Pert. #  2: Fermi energy shift (Ry) =     0.0000E+00    -6.9355E-42

      iter #   6 total cpu time :  8532.9 secs   av.it.:  18.2
      thresh= 7.598E-07 alpha_mix =  0.700 |ddv_scf|^2 =  9.642E-13

     Pert. #  1: Fermi energy shift (Ry) =     3.6140E-20     0.0000E+00
     Pert. #  2: Fermi energy shift (Ry) =     5.4210E-20     5.7397E-42

      iter #   7 total cpu time :  8592.5 secs   av.it.:  19.0
      thresh= 9.819E-08 alpha_mix =  0.700 |ddv_scf|^2 =  2.776E-14

     Pert. #  1: Fermi energy shift (Ry) =     7.2280E-20    -7.4736E-44
     Pert. #  2: Fermi energy shift (Ry) =     9.0350E-21    -4.4842E-44

      iter #   8 total cpu time :  8642.5 secs   av.it.:  19.6
      thresh= 1.666E-08 alpha_mix =  0.700 |ddv_scf|^2 =  2.590E-14

     Pert. #  1: Fermi energy shift (Ry) =     9.0350E-20     2.3915E-43
     Pert. #  2: Fermi energy shift (Ry) =    -2.7105E-20    -1.7937E-43

      iter #   9 total cpu time :  8688.2 secs   av.it.:  18.7
      thresh= 1.609E-08 alpha_mix =  0.700 |ddv_scf|^2 =  2.716E-15

     Pert. #  1: Fermi energy shift (Ry) =     1.4456E-19     0.0000E+00
     Pert. #  2: Fermi energy shift (Ry) =     1.8070E-20     0.0000E+00

      iter #  10 total cpu time :  8744.0 secs   av.it.:  19.7
      thresh= 5.211E-09 alpha_mix =  0.700 |ddv_scf|^2 =  3.440E-15

     Pert. #  1: Fermi energy shift (Ry) =     5.4210E-20    -1.1958E-43
     Pert. #  2: Fermi energy shift (Ry) =     1.8070E-20    -4.4842E-44

      iter #  11 total cpu time :  8789.2 secs   av.it.:  18.0
      thresh= 5.866E-09 alpha_mix =  0.700 |ddv_scf|^2 =  4.220E-16

     Pert. #  1: Fermi energy shift (Ry) =     1.2649E-19    -1.4947E-44
     Pert. #  2: Fermi energy shift (Ry) =     9.0350E-21    -3.7368E-44

      iter #  12 total cpu time :  8842.3 secs   av.it.:  18.6
      thresh= 2.054E-09 alpha_mix =  0.700 |ddv_scf|^2 =  2.175E-17

     End of self-consistent calculation

     Convergence has been achieved 


     Representation #  16 modes #  20  21

     Self-consistent Calculation

     Pert. #  1: Fermi energy shift (Ry) =     1.1565E-18     6.2693E-38
     Pert. #  2: Fermi energy shift (Ry) =    -2.6021E-18    -1.4106E-37

      iter #   1 total cpu time :  8935.2 secs   av.it.:   7.0
      thresh= 1.000E-02 alpha_mix =  0.700 |ddv_scf|^2 =  1.596E-08

     Pert. #  1: Fermi energy shift (Ry) =     4.6259E-18    -6.1224E-41
     Pert. #  2: Fermi energy shift (Ry) =     1.8504E-17    -1.5306E-41

      iter #   2 total cpu time :  9005.4 secs   av.it.:  20.6
      thresh= 1.263E-05 alpha_mix =  0.700 |ddv_scf|^2 =  4.584E-07

     Pert. #  1: Fermi energy shift (Ry) =     1.1565E-18    -1.2245E-40
     Pert. #  2: Fermi energy shift (Ry) =    -6.9389E-18     4.8979E-40

      iter #   3 total cpu time :  9082.1 secs   av.it.:  17.1
      thresh= 6.770E-05 alpha_mix =  0.700 |ddv_scf|^2 =  2.160E-08

     Pert. #  1: Fermi energy shift (Ry) =    -1.8070E-20     0.0000E+00
     Pert. #  2: Fermi energy shift (Ry) =    -3.1623E-20    -9.1835E-41

      iter #   4 total cpu time :  9146.5 secs   av.it.:  17.9
      thresh= 1.470E-05 alpha_mix =  0.700 |ddv_scf|^2 =  1.173E-10

     Pert. #  1: Fermi energy shift (Ry) =    -9.0350E-21     3.8265E-42
     Pert. #  2: Fermi energy shift (Ry) =    -1.8070E-20    -3.8265E-42

      iter #   5 total cpu time :  9219.6 secs   av.it.:  19.0
      thresh= 1.083E-06 alpha_mix =  0.700 |ddv_scf|^2 =  3.735E-12

     Pert. #  1: Fermi energy shift (Ry) =    -9.0350E-21    -4.7831E-43
     Pert. #  2: Fermi energy shift (Ry) =    -3.6140E-20    -4.7831E-43

      iter #   6 total cpu time :  9275.9 secs   av.it.:  19.1
      thresh= 1.933E-07 alpha_mix =  0.700 |ddv_scf|^2 =  4.461E-13

     Pert. #  1: Fermi energy shift (Ry) =    -1.8070E-20     0.0000E+00
     Pert. #  2: Fermi energy shift (Ry) =    -4.5175E-20    -1.1958E-43

      iter #   7 total cpu time :  9342.2 secs   av.it.:  19.0
      thresh= 6.679E-08 alpha_mix =  0.700 |ddv_scf|^2 =  5.708E-14

     Pert. #  1: Fermi energy shift (Ry) =     0.0000E+00     0.0000E+00
     Pert. #  2: Fermi energy shift (Ry) =    -4.5175E-20    -2.9894E-44

      iter #   8 total cpu time :  9407.0 secs   av.it.:  19.0
      thresh= 2.389E-08 alpha_mix =  0.700 |ddv_scf|^2 =  1.157E-14

     Pert. #  1: Fermi energy shift (Ry) =    -5.4210E-20     0.0000E+00
     Pert. #  2: Fermi energy shift (Ry) =    -6.3245E-20     2.3915E-43

      iter #   9 total cpu time :  9455.0 secs   av.it.:  19.0
      thresh= 1.076E-08 alpha_mix =  0.700 |ddv_scf|^2 =  5.540E-15

     Pert. #  1: Fermi energy shift (Ry) =     0.0000E+00     2.9894E-44
     Pert. #  2: Fermi energy shift (Ry) =    -5.4210E-20     8.9683E-44

      iter #  10 total cpu time :  9506.6 secs   av.it.:  18.6
      thresh= 7.443E-09 alpha_mix =  0.700 |ddv_scf|^2 =  1.551E-15

     Pert. #  1: Fermi energy shift (Ry) =    -3.6140E-20     1.4947E-44
     Pert. #  2: Fermi energy shift (Ry) =    -4.5175E-20     1.4947E-44

      iter #  11 total cpu time :  9561.8 secs   av.it.:  18.7
      thresh= 3.939E-09 alpha_mix =  0.700 |ddv_scf|^2 =  1.405E-16

     Pert. #  1: Fermi energy shift (Ry) =     0.0000E+00     0.0000E+00
     Pert. #  2: Fermi energy shift (Ry) =    -2.7105E-20    -2.2421E-44

      iter #  12 total cpu time :  9610.7 secs   av.it.:  19.0
      thresh= 1.185E-09 alpha_mix =  0.700 |ddv_scf|^2 =  1.412E-17

     End of self-consistent calculation

     Convergence has been achieved 


     Representation #  17 modes #  22  23

     Self-consistent Calculation

     Pert. #  1: Fermi energy shift (Ry) =    -2.1684E-19     2.3510E-38
     Pert. #  2: Fermi energy shift (Ry) =    -1.8070E-19     7.8366E-39

      iter #   1 total cpu time :  9688.1 secs   av.it.:   6.9
      thresh= 1.000E-02 alpha_mix =  0.700 |ddv_scf|^2 =  4.669E-09

     Pert. #  1: Fermi energy shift (Ry) =    -4.3368E-19     0.0000E+00
     Pert. #  2: Fermi energy shift (Ry) =    -1.4456E-19     0.0000E+00

      iter #   2 total cpu time :  9772.7 secs   av.it.:  19.7
      thresh= 6.833E-06 alpha_mix =  0.700 |ddv_scf|^2 =  3.951E-09

     Pert. #  1: Fermi energy shift (Ry) =     5.7824E-19    -1.5306E-41
     Pert. #  2: Fermi energy shift (Ry) =     2.8912E-19     0.0000E+00

      iter #   3 total cpu time :  9832.9 secs   av.it.:  19.0
      thresh= 6.286E-06 alpha_mix =  0.700 |ddv_scf|^2 =  1.696E-09

     Pert. #  1: Fermi energy shift (Ry) =     0.0000E+00    -7.6530E-42
     Pert. #  2: Fermi energy shift (Ry) =    -5.7824E-19    -7.6530E-42

      iter #   4 total cpu time :  9901.6 secs   av.it.:  17.6
      thresh= 4.118E-06 alpha_mix =  0.700 |ddv_scf|^2 =  4.937E-10

     Pert. #  1: Fermi energy shift (Ry) =    -1.4456E-19    -7.6530E-42
     Pert. #  2: Fermi energy shift (Ry) =     5.4210E-20     7.6530E-42

      iter #   5 total cpu time :  9978.0 secs   av.it.:  17.9
      thresh= 2.222E-06 alpha_mix =  0.700 |ddv_scf|^2 =  3.208E-12

     Pert. #  1: Fermi energy shift (Ry) =     3.6140E-20     4.7831E-43
     Pert. #  2: Fermi energy shift (Ry) =    -7.2280E-20     4.7831E-43

      iter #   6 total cpu time : 10030.6 secs   av.it.:  18.9
      thresh= 1.791E-07 alpha_mix =  0.700 |ddv_scf|^2 =  1.198E-13

     Pert. #  1: Fermi energy shift (Ry) =     0.0000E+00     1.1958E-43
     Pert. #  2: Fermi energy shift (Ry) =     1.8070E-20    -1.1958E-43

      iter #   7 total cpu time : 10077.0 secs   av.it.:  19.2
      thresh= 3.460E-08 alpha_mix =  0.700 |ddv_scf|^2 =  1.369E-14

     Pert. #  1: Fermi energy shift (Ry) =     0.0000E+00     2.9894E-44
     Pert. #  2: Fermi energy shift (Ry) =     3.6140E-20    -2.9894E-44

      iter #   8 total cpu time : 10126.8 secs   av.it.:  19.7
      thresh= 1.170E-08 alpha_mix =  0.700 |ddv_scf|^2 =  2.489E-15

     Pert. #  1: Fermi energy shift (Ry) =     0.0000E+00     1.4947E-44
     Pert. #  2: Fermi energy shift (Ry) =    -3.6140E-20     1.4947E-44

      iter #   9 total cpu time : 10183.0 secs   av.it.:  19.6
      thresh= 4.989E-09 alpha_mix =  0.700 |ddv_scf|^2 =  9.709E-16

     Pert. #  1: Fermi energy shift (Ry) =     7.2280E-20     2.9894E-44
     Pert. #  2: Fermi energy shift (Ry) =     0.0000E+00     2.9894E-44

      iter #  10 total cpu time : 10250.0 secs   av.it.:  19.2
      thresh= 3.116E-09 alpha_mix =  0.700 |ddv_scf|^2 =  4.609E-15

     Pert. #  1: Fermi energy shift (Ry) =     7.2280E-20     0.0000E+00
     Pert. #  2: Fermi energy shift (Ry) =     1.8070E-20    -7.4736E-45

      iter #  11 total cpu time : 10304.3 secs   av.it.:  17.7
      thresh= 6.789E-09 alpha_mix =  0.700 |ddv_scf|^2 =  1.599E-16

     Pert. #  1: Fermi energy shift (Ry) =    -3.6140E-20     2.9894E-44
     Pert. #  2: Fermi energy shift (Ry) =    -1.8070E-20     5.9789E-44

      iter #  12 total cpu time : 10352.8 secs   av.it.:  19.1
      thresh= 1.265E-09 alpha_mix =  0.700 |ddv_scf|^2 =  4.643E-17

     End of self-consistent calculation

     Convergence has been achieved 


     Representation #  18 modes #  24  25

     Self-consistent Calculation

     Pert. #  1: Fermi energy shift (Ry) =    -1.7347E-18     0.0000E+00
     Pert. #  2: Fermi energy shift (Ry) =     8.6736E-19    -5.0154E-37

      iter #   1 total cpu time : 10426.6 secs   av.it.:   7.0
      thresh= 1.000E-02 alpha_mix =  0.700 |ddv_scf|^2 =  8.947E-09

     Pert. #  1: Fermi energy shift (Ry) =     0.0000E+00     0.0000E+00
     Pert. #  2: Fermi energy shift (Ry) =    -2.0238E-18     2.4489E-40

      iter #   2 total cpu time : 10480.7 secs   av.it.:  19.7
      thresh= 9.459E-06 alpha_mix =  0.700 |ddv_scf|^2 =  7.733E-09

     Pert. #  1: Fermi energy shift (Ry) =     1.1565E-18     6.1224E-41
     Pert. #  2: Fermi energy shift (Ry) =    -5.7824E-19     2.4489E-40

      iter #   3 total cpu time : 10540.0 secs   av.it.:  19.2
      thresh= 8.794E-06 alpha_mix =  0.700 |ddv_scf|^2 =  8.100E-09

     Pert. #  1: Fermi energy shift (Ry) =     0.0000E+00     0.0000E+00
     Pert. #  2: Fermi energy shift (Ry) =    -4.3368E-19     3.0612E-40

      iter #   4 total cpu time : 10596.0 secs   av.it.:  17.2
      thresh= 9.000E-06 alpha_mix =  0.700 |ddv_scf|^2 =  1.004E-09

     Pert. #  1: Fermi energy shift (Ry) =    -7.2280E-20     2.2959E-41
     Pert. #  2: Fermi energy shift (Ry) =     1.4456E-19     2.2959E-41

      iter #   5 total cpu time : 10655.7 secs   av.it.:  18.1
      thresh= 3.169E-06 alpha_mix =  0.700 |ddv_scf|^2 =  2.275E-12

     Pert. #  1: Fermi energy shift (Ry) =    -1.4456E-19     2.3915E-43
     Pert. #  2: Fermi energy shift (Ry) =     3.9754E-19    -8.3704E-43

      iter #   6 total cpu time : 10708.7 secs   av.it.:  18.9
      thresh= 1.508E-07 alpha_mix =  0.700 |ddv_scf|^2 =  4.663E-13

     Pert. #  1: Fermi energy shift (Ry) =     1.4456E-19     2.3915E-43
     Pert. #  2: Fermi energy shift (Ry) =     0.0000E+00    -2.3915E-43

      iter #   7 total cpu time : 10758.7 secs   av.it.:  19.1
      thresh= 6.829E-08 alpha_mix =  0.700 |ddv_scf|^2 =  3.144E-14

     Pert. #  1: Fermi energy shift (Ry) =     7.2280E-20     0.0000E+00
     Pert. #  2: Fermi energy shift (Ry) =     1.4456E-19    -8.9683E-44

      iter #   8 total cpu time : 10806.3 secs   av.it.:  19.1
      thresh= 1.773E-08 alpha_mix =  0.700 |ddv_scf|^2 =  4.533E-15

     Pert. #  1: Fermi energy shift (Ry) =     1.4456E-19     0.0000E+00
     Pert. #  2: Fermi energy shift (Ry) =     1.8070E-19     5.9789E-44

      iter #   9 total cpu time : 10868.1 secs   av.it.:  19.9
      thresh= 6.733E-09 alpha_mix =  0.700 |ddv_scf|^2 =  1.358E-14

     Pert. #  1: Fermi energy shift (Ry) =     7.2280E-20     0.0000E+00
     Pert. #  2: Fermi energy shift (Ry) =     1.8070E-19    -5.9789E-43

      iter #  10 total cpu time : 10926.6 secs   av.it.:  17.7
      thresh= 1.165E-08 alpha_mix =  0.700 |ddv_scf|^2 =  2.600E-15

     Pert. #  1: Fermi energy shift (Ry) =     7.2280E-20     0.0000E+00
     Pert. #  2: Fermi energy shift (Ry) =     1.0842E-19     8.9683E-44

      iter #  11 total cpu time : 10971.0 secs   av.it.:  18.6
      thresh= 5.099E-09 alpha_mix =  0.700 |ddv_scf|^2 =  3.651E-16

     Pert. #  1: Fermi energy shift (Ry) =     0.0000E+00    -1.1210E-44
     Pert. #  2: Fermi energy shift (Ry) =     2.1684E-19     1.1210E-44

      iter #  12 total cpu time : 11017.8 secs   av.it.:  19.0
      thresh= 1.911E-09 alpha_mix =  0.700 |ddv_scf|^2 =  7.786E-17

     End of self-consistent calculation

     Convergence has been achieved 


     Representation #  19 modes #  26  27

     Self-consistent Calculation

     Pert. #  1: Fermi energy shift (Ry) =     2.3130E-18    -2.5077E-37
     Pert. #  2: Fermi energy shift (Ry) =     1.1565E-18     5.9558E-37

      iter #   1 total cpu time : 11107.0 secs   av.it.:   6.3
      thresh= 1.000E-02 alpha_mix =  0.700 |ddv_scf|^2 =  1.126E-08

     Pert. #  1: Fermi energy shift (Ry) =    -9.2519E-18    -7.3468E-40
     Pert. #  2: Fermi energy shift (Ry) =    -9.2519E-18     4.2857E-40

      iter #   2 total cpu time : 11179.9 secs   av.it.:  20.4
      thresh= 1.061E-05 alpha_mix =  0.700 |ddv_scf|^2 =  4.837E-07

     Pert. #  1: Fermi energy shift (Ry) =     0.0000E+00    -2.4489E-40
     Pert. #  2: Fermi energy shift (Ry) =    -4.0477E-18     9.7958E-40

      iter #   3 total cpu time : 11242.7 secs   av.it.:  16.7
      thresh= 6.955E-05 alpha_mix =  0.700 |ddv_scf|^2 =  6.380E-09

     Pert. #  1: Fermi energy shift (Ry) =     0.0000E+00     0.0000E+00
     Pert. #  2: Fermi energy shift (Ry) =     7.2280E-19     1.3775E-40

      iter #   4 total cpu time : 11294.5 secs   av.it.:  17.9
      thresh= 7.988E-06 alpha_mix =  0.700 |ddv_scf|^2 =  2.572E-10

     Pert. #  1: Fermi energy shift (Ry) =     7.2280E-20     4.5918E-41
     Pert. #  2: Fermi energy shift (Ry) =    -3.6140E-20    -7.6530E-41

      iter #   5 total cpu time : 11361.8 secs   av.it.:  17.7
      thresh= 1.604E-06 alpha_mix =  0.700 |ddv_scf|^2 =  3.037E-12

     Pert. #  1: Fermi energy shift (Ry) =    -1.8070E-20    -9.5662E-43
     Pert. #  2: Fermi energy shift (Ry) =     1.8070E-20     7.1746E-43

      iter #   6 total cpu time : 11428.2 secs   av.it.:  18.6
      thresh= 1.743E-07 alpha_mix =  0.700 |ddv_scf|^2 =  1.846E-13

     Pert. #  1: Fermi energy shift (Ry) =     0.0000E+00     7.1746E-43
     Pert. #  2: Fermi energy shift (Ry) =     6.3245E-20    -5.9789E-43

      iter #   7 total cpu time : 11481.0 secs   av.it.:  19.4
      thresh= 4.296E-08 alpha_mix =  0.700 |ddv_scf|^2 =  9.287E-14

     Pert. #  1: Fermi energy shift (Ry) =    -1.0842E-19    -2.3915E-43
     Pert. #  2: Fermi energy shift (Ry) =     1.8070E-20     5.9789E-44

      iter #   8 total cpu time : 11538.8 secs   av.it.:  18.7
      thresh= 3.047E-08 alpha_mix =  0.700 |ddv_scf|^2 =  5.316E-15

     Pert. #  1: Fermi energy shift (Ry) =    -5.4210E-20     2.3915E-43
     Pert. #  2: Fermi energy shift (Ry) =     0.0000E+00    -4.4842E-43

      iter #   9 total cpu time : 11595.7 secs   av.it.:  19.1
      thresh= 7.291E-09 alpha_mix =  0.700 |ddv_scf|^2 =  2.098E-16

     Pert. #  1: Fermi energy shift (Ry) =     1.8070E-20     2.9894E-44
     Pert. #  2: Fermi energy shift (Ry) =     1.8070E-20    -8.9683E-44

      iter #  10 total cpu time : 11653.9 secs   av.it.:  19.9
      thresh= 1.449E-09 alpha_mix =  0.700 |ddv_scf|^2 =  2.505E-17

     End of self-consistent calculation

     Convergence has been achieved 


     Representation #  20 modes #  28  29

     Self-consistent Calculation

     Pert. #  1: Fermi energy shift (Ry) =    -5.7824E-18     3.1347E-38
     Pert. #  2: Fermi energy shift (Ry) =    -8.0954E-18     4.7020E-38

      iter #   1 total cpu time : 11715.4 secs   av.it.:   7.0
      thresh= 1.000E-02 alpha_mix =  0.700 |ddv_scf|^2 =  4.577E-08

     Pert. #  1: Fermi energy shift (Ry) =     3.7007E-17     0.0000E+00
     Pert. #  2: Fermi energy shift (Ry) =     4.6259E-17    -4.2857E-40

      iter #   2 total cpu time : 11776.7 secs   av.it.:  20.2
      thresh= 2.139E-05 alpha_mix =  0.700 |ddv_scf|^2 =  1.498E-06

     Pert. #  1: Fermi energy shift (Ry) =    -9.2519E-18    -4.5918E-41
     Pert. #  2: Fermi energy shift (Ry) =    -1.1565E-17    -1.5306E-41

      iter #   3 total cpu time : 11837.4 secs   av.it.:  17.1
      thresh= 1.224E-04 alpha_mix =  0.700 |ddv_scf|^2 =  6.717E-08

     Pert. #  1: Fermi energy shift (Ry) =    -3.6140E-20     3.0612E-41
     Pert. #  2: Fermi energy shift (Ry) =    -3.6140E-19     1.5306E-41

      iter #   4 total cpu time : 11898.7 secs   av.it.:  17.7
      thresh= 2.592E-05 alpha_mix =  0.700 |ddv_scf|^2 =  1.727E-10

     Pert. #  1: Fermi energy shift (Ry) =     5.7824E-19     0.0000E+00
     Pert. #  2: Fermi energy shift (Ry) =     9.3964E-19     7.6530E-42

      iter #   5 total cpu time : 11962.1 secs   av.it.:  19.6
      thresh= 1.314E-06 alpha_mix =  0.700 |ddv_scf|^2 =  6.576E-11

     Pert. #  1: Fermi energy shift (Ry) =     2.1684E-19    -3.8265E-42
     Pert. #  2: Fermi energy shift (Ry) =     2.8912E-19    -5.7397E-42

      iter #   6 total cpu time : 12021.0 secs   av.it.:  18.1
      thresh= 8.109E-07 alpha_mix =  0.700 |ddv_scf|^2 =  1.497E-12

     Pert. #  1: Fermi energy shift (Ry) =     7.2280E-20    -4.7831E-43
     Pert. #  2: Fermi energy shift (Ry) =     4.6982E-19     4.7831E-43

      iter #   7 total cpu time : 12077.9 secs   av.it.:  18.7
      thresh= 1.224E-07 alpha_mix =  0.700 |ddv_scf|^2 =  2.812E-14

     Pert. #  1: Fermi energy shift (Ry) =     0.0000E+00    -2.2421E-44
     Pert. #  2: Fermi energy shift (Ry) =     3.2526E-19    -1.4947E-44

      iter #   8 total cpu time : 12132.3 secs   av.it.:  19.6
      thresh= 1.677E-08 alpha_mix =  0.700 |ddv_scf|^2 =  2.178E-14

     Pert. #  1: Fermi energy shift (Ry) =     7.2280E-20    -1.7937E-43
     Pert. #  2: Fermi energy shift (Ry) =     1.8070E-19    -2.3915E-43

      iter #   9 total cpu time : 12186.0 secs   av.it.:  18.7
      thresh= 1.476E-08 alpha_mix =  0.700 |ddv_scf|^2 =  8.097E-16

     Pert. #  1: Fermi energy shift (Ry) =     2.1684E-19     0.0000E+00
     Pert. #  2: Fermi energy shift (Ry) =     3.9754E-19     5.2315E-44

      iter #  10 total cpu time : 12243.6 secs   av.it.:  20.0
      thresh= 2.846E-09 alpha_mix =  0.700 |ddv_scf|^2 =  4.659E-16

     Pert. #  1: Fermi energy shift (Ry) =     1.4456E-19     7.4736E-45
     Pert. #  2: Fermi energy shift (Ry) =     2.5298E-19     1.1210E-44

      iter #  11 total cpu time : 12296.2 secs   av.it.:  19.0
      thresh= 2.158E-09 alpha_mix =  0.700 |ddv_scf|^2 =  1.013E-16

     Pert. #  1: Fermi energy shift (Ry) =     1.4456E-19     1.8684E-45
     Pert. #  2: Fermi energy shift (Ry) =     7.5894E-19     9.3420E-46

      iter #  12 total cpu time : 12345.9 secs   av.it.:  18.6
      thresh= 1.007E-09 alpha_mix =  0.700 |ddv_scf|^2 =  5.609E-18

     End of self-consistent calculation

     Convergence has been achieved 


     Representation #  21 modes #  30  31

     Self-consistent Calculation

     Pert. #  1: Fermi energy shift (Ry) =     5.7824E-19    -4.7020E-38
     Pert. #  2: Fermi energy shift (Ry) =     5.7824E-19    -4.7020E-38

      iter #   1 total cpu time : 12415.8 secs   av.it.:   7.0
      thresh= 1.000E-02 alpha_mix =  0.700 |ddv_scf|^2 =  1.407E-08

     Pert. #  1: Fermi energy shift (Ry) =     0.0000E+00     0.0000E+00
     Pert. #  2: Fermi energy shift (Ry) =     1.8504E-17    -4.5918E-41

      iter #   2 total cpu time : 12475.0 secs   av.it.:  20.1
      thresh= 1.186E-05 alpha_mix =  0.700 |ddv_scf|^2 =  1.458E-07

     Pert. #  1: Fermi energy shift (Ry) =    -4.6259E-18     3.0612E-41
     Pert. #  2: Fermi energy shift (Ry) =    -2.0817E-17    -7.6530E-41

      iter #   3 total cpu time : 12533.9 secs   av.it.:  17.7
      thresh= 3.819E-05 alpha_mix =  0.700 |ddv_scf|^2 =  8.634E-08

     Pert. #  1: Fermi energy shift (Ry) =     1.4456E-19    -6.1224E-41
     Pert. #  2: Fermi energy shift (Ry) =     3.2526E-19     1.2245E-40

      iter #   4 total cpu time : 12595.0 secs   av.it.:  17.2
      thresh= 2.938E-05 alpha_mix =  0.700 |ddv_scf|^2 =  4.522E-11

     Pert. #  1: Fermi energy shift (Ry) =     4.3368E-19    -9.5662E-43
     Pert. #  2: Fermi energy shift (Ry) =     3.6140E-19     2.3915E-42

      iter #   5 total cpu time : 12661.6 secs   av.it.:  19.7
      thresh= 6.725E-07 alpha_mix =  0.700 |ddv_scf|^2 =  5.035E-12

     Pert. #  1: Fermi energy shift (Ry) =     5.7824E-19     9.5662E-43
     Pert. #  2: Fermi energy shift (Ry) =     5.7824E-19    -1.9132E-42

      iter #   6 total cpu time : 12716.0 secs   av.it.:  18.7
      thresh= 2.244E-07 alpha_mix =  0.700 |ddv_scf|^2 =  1.619E-13

     Pert. #  1: Fermi energy shift (Ry) =     4.3368E-19    -2.3915E-43
     Pert. #  2: Fermi energy shift (Ry) =     5.0596E-19    -5.9789E-43

      iter #   7 total cpu time : 12773.5 secs   av.it.:  19.6
      thresh= 4.024E-08 alpha_mix =  0.700 |ddv_scf|^2 =  2.932E-14

     Pert. #  1: Fermi energy shift (Ry) =     5.7824E-19    -2.9894E-44
     Pert. #  2: Fermi energy shift (Ry) =     2.8912E-19     7.4736E-44

      iter #   8 total cpu time : 12825.3 secs   av.it.:  19.6
      thresh= 1.712E-08 alpha_mix =  0.700 |ddv_scf|^2 =  1.184E-14

     Pert. #  1: Fermi energy shift (Ry) =     2.8912E-19     0.0000E+00
     Pert. #  2: Fermi energy shift (Ry) =     2.1684E-19    -9.3420E-45

      iter #   9 total cpu time : 12881.7 secs   av.it.:  18.5
      thresh= 1.088E-08 alpha_mix =  0.700 |ddv_scf|^2 =  2.687E-15

     Pert. #  1: Fermi energy shift (Ry) =     7.2280E-19    -5.9789E-44
     Pert. #  2: Fermi energy shift (Ry) =     1.4456E-19    -1.4947E-43

      iter #  10 total cpu time : 12939.6 secs   av.it.:  19.6
      thresh= 5.184E-09 alpha_mix =  0.700 |ddv_scf|^2 =  2.174E-14

     Pert. #  1: Fermi energy shift (Ry) =     7.2280E-19    -1.1958E-43
     Pert. #  2: Fermi energy shift (Ry) =     2.8912E-19    -2.0926E-43

      iter #  11 total cpu time : 12984.1 secs   av.it.:  17.6
      thresh= 1.475E-08 alpha_mix =  0.700 |ddv_scf|^2 =  6.415E-17

     End of self-consistent calculation

     Convergence has been achieved 


     Representation #  22 modes #  32  33

     Self-consistent Calculation

     Pert. #  1: Fermi energy shift (Ry) =     4.3368E-19    -3.7616E-37
     Pert. #  2: Fermi energy shift (Ry) =     4.3368E-19    -1.8808E-37

      iter #   1 total cpu time : 13064.5 secs   av.it.:   6.0
      thresh= 1.000E-02 alpha_mix =  0.700 |ddv_scf|^2 =  4.633E-09

     Pert. #  1: Fermi energy shift (Ry) =    -9.2519E-18    -1.5306E-40
     Pert. #  2: Fermi energy shift (Ry) =    -3.4694E-18     3.0612E-41

      iter #   2 total cpu time : 13126.4 secs   av.it.:  19.9
      thresh= 6.807E-06 alpha_mix =  0.700 |ddv_scf|^2 =  4.444E-08

     Pert. #  1: Fermi energy shift (Ry) =     2.3130E-18    -4.5918E-41
     Pert. #  2: Fermi energy shift (Ry) =     4.6259E-18     2.1046E-40

      iter #   3 total cpu time : 13205.9 secs   av.it.:  17.7
      thresh= 2.108E-05 alpha_mix =  0.700 |ddv_scf|^2 =  2.145E-08

     Pert. #  1: Fermi energy shift (Ry) =    -4.3368E-19    -6.8877E-41
     Pert. #  2: Fermi energy shift (Ry) =    -9.3964E-19     1.7219E-41

      iter #   4 total cpu time : 13268.8 secs   av.it.:  17.6
      thresh= 1.465E-05 alpha_mix =  0.700 |ddv_scf|^2 =  9.697E-11

     Pert. #  1: Fermi energy shift (Ry) =    -1.8070E-19     2.2959E-41
     Pert. #  2: Fermi energy shift (Ry) =    -1.4456E-19     3.0612E-41

      iter #   5 total cpu time : 13347.0 secs   av.it.:  18.7
      thresh= 9.847E-07 alpha_mix =  0.700 |ddv_scf|^2 =  1.024E-12

     Pert. #  1: Fermi energy shift (Ry) =    -1.4456E-19     1.4349E-42
     Pert. #  2: Fermi energy shift (Ry) =    -1.0842E-19     7.1746E-43

      iter #   6 total cpu time : 13394.0 secs   av.it.:  19.0
      thresh= 1.012E-07 alpha_mix =  0.700 |ddv_scf|^2 =  4.000E-13

     Pert. #  1: Fermi energy shift (Ry) =    -1.4456E-19    -1.9132E-42
     Pert. #  2: Fermi energy shift (Ry) =    -1.8070E-20    -1.1958E-42

      iter #   7 total cpu time : 13448.4 secs   av.it.:  19.1
      thresh= 6.325E-08 alpha_mix =  0.700 |ddv_scf|^2 =  1.531E-13

     Pert. #  1: Fermi energy shift (Ry) =    -2.8912E-19     7.1746E-43
     Pert. #  2: Fermi energy shift (Ry) =    -1.6263E-19     4.7831E-43

      iter #   8 total cpu time : 13501.5 secs   av.it.:  18.6
      thresh= 3.913E-08 alpha_mix =  0.700 |ddv_scf|^2 =  2.065E-15

     Pert. #  1: Fermi energy shift (Ry) =    -7.2280E-20     2.0926E-43
     Pert. #  2: Fermi energy shift (Ry) =    -1.8070E-19    -2.9894E-44

      iter #   9 total cpu time : 13563.7 secs   av.it.:  19.9
      thresh= 4.545E-09 alpha_mix =  0.700 |ddv_scf|^2 =  1.859E-15

     Pert. #  1: Fermi energy shift (Ry) =    -1.8070E-19     1.1958E-43
     Pert. #  2: Fermi energy shift (Ry) =    -5.4210E-20     1.0463E-43

      iter #  10 total cpu time : 13610.4 secs   av.it.:  18.9
      thresh= 4.311E-09 alpha_mix =  0.700 |ddv_scf|^2 =  2.311E-15

     Pert. #  1: Fermi energy shift (Ry) =    -1.0842E-19     1.7937E-43
     Pert. #  2: Fermi energy shift (Ry) =    -1.2649E-19     2.3915E-43

      iter #  11 total cpu time : 13655.2 secs   av.it.:  17.7
      thresh= 4.808E-09 alpha_mix =  0.700 |ddv_scf|^2 =  7.037E-17

     End of self-consistent calculation

     Convergence has been achieved 

     Number of q in the star =    1
     List of q in the star:
          1   0.000000000   0.000000000   0.000000000

     Diagonalizing the dynamical matrix

     q = (    0.000000000   0.000000000   0.000000000 ) 

 **************************************************************************
     freq (    1) =      -0.173804 [THz] =      -5.797480 [cm-1]
     freq (    2) =      -0.173804 [THz] =      -5.797480 [cm-1]
     freq (    3) =       0.074836 [THz] =       2.496273 [cm-1]
     freq (    4) =       1.439084 [THz] =      48.002679 [cm-1]
     freq (    5) =       1.439084 [THz] =      48.002679 [cm-1]
     freq (    6) =       1.849411 [THz] =      61.689701 [cm-1]
     freq (    7) =       1.849411 [THz] =      61.689701 [cm-1]
     freq (    8) =       2.190807 [THz] =      73.077464 [cm-1]
     freq (    9) =       2.587983 [THz] =      86.325835 [cm-1]
     freq (   10) =       2.587983 [THz] =      86.325835 [cm-1]
     freq (   11) =       2.594145 [THz] =      86.531364 [cm-1]
     freq (   12) =       2.770904 [THz] =      92.427398 [cm-1]
     freq (   13) =       2.833571 [THz] =      94.517752 [cm-1]
     freq (   14) =       2.833571 [THz] =      94.517752 [cm-1]
     freq (   15) =       2.981947 [THz] =      99.467029 [cm-1]
     freq (   16) =       3.040475 [THz] =     101.419340 [cm-1]
     freq (   17) =       3.277927 [THz] =     109.339879 [cm-1]
     freq (   18) =       3.277927 [THz] =     109.339879 [cm-1]
     freq (   19) =       3.332386 [THz] =     111.156436 [cm-1]
     freq (   20) =       3.332386 [THz] =     111.156436 [cm-1]
     freq (   21) =       3.737718 [THz] =     124.676854 [cm-1]
     freq (   22) =       4.028932 [THz] =     134.390704 [cm-1]
     freq (   23) =       4.028932 [THz] =     134.390704 [cm-1]
     freq (   24) =       4.121500 [THz] =     137.478438 [cm-1]
     freq (   25) =       5.009449 [THz] =     167.097217 [cm-1]
     freq (   26) =       5.009449 [THz] =     167.097217 [cm-1]
     freq (   27) =       5.663133 [THz] =     188.901790 [cm-1]
     freq (   28) =       6.166603 [THz] =     205.695739 [cm-1]
     freq (   29) =       6.166603 [THz] =     205.695739 [cm-1]
     freq (   30) =       6.557141 [THz] =     218.722682 [cm-1]
     freq (   31) =       7.166195 [THz] =     239.038521 [cm-1]
     freq (   32) =       7.166195 [THz] =     239.038521 [cm-1]
     freq (   33) =       7.442288 [THz] =     248.248016 [cm-1]
 **************************************************************************

     Mode symmetry, C_3v (3m)   point group:

     freq (   1-   2) =         -5.8  [cm-1]   --> E    L_3        I+R
     freq (   3-   3) =          2.5  [cm-1]   --> A_1  L_1        I+R
     freq (   4-   5) =         48.0  [cm-1]   --> E    L_3        I+R
     freq (   6-   7) =         61.7  [cm-1]   --> E    L_3        I+R
     freq (   8-   8) =         73.1  [cm-1]   --> A_2  L_2           
     freq (   9-  10) =         86.3  [cm-1]   --> E    L_3        I+R
     freq (  11-  11) =         86.5  [cm-1]   --> A_1  L_1        I+R
     freq (  12-  12) =         92.4  [cm-1]   --> A_1  L_1        I+R
     freq (  13-  14) =         94.5  [cm-1]   --> E    L_3        I+R
     freq (  15-  15) =         99.5  [cm-1]   --> A_2  L_2           
     freq (  16-  16) =        101.4  [cm-1]   --> A_1  L_1        I+R
     freq (  17-  18) =        109.3  [cm-1]   --> E    L_3        I+R
     freq (  19-  20) =        111.2  [cm-1]   --> E    L_3        I+R
     freq (  21-  21) =        124.7  [cm-1]   --> A_1  L_1        I+R
     freq (  22-  23) =        134.4  [cm-1]   --> E    L_3        I+R
     freq (  24-  24) =        137.5  [cm-1]   --> A_1  L_1        I+R
     freq (  25-  26) =        167.1  [cm-1]   --> E    L_3        I+R
     freq (  27-  27) =        188.9  [cm-1]   --> A_2  L_2           
     freq (  28-  29) =        205.7  [cm-1]   --> E    L_3        I+R
     freq (  30-  30) =        218.7  [cm-1]   --> A_1  L_1        I+R
     freq (  31-  32) =        239.0  [cm-1]   --> E    L_3        I+R
     freq (  33-  33) =        248.2  [cm-1]   --> A_1  L_1        I+R

     Calculation of q =    0.2886751  -0.5000000   0.0000000

     Parallelization info
     --------------------
     sticks:   dense  smooth     PW     G-vecs:    dense   smooth      PW
     Min         179     179     49                49361    49361    7139
     Max         180     180     50                49373    49373    7156
     Sum        5731    5731   1573              1579823  1579823  228613

     Using Slab Decomposition


     Title: 
     Nb3I8                                                                      


     bravais-lattice index     =            0
     lattice parameter (alat)  =      14.4200  a.u.
     unit-cell volume          =   11694.9391 (a.u.)^3
[...]
      thresh= 1.746E-07 alpha_mix =  0.700 |ddv_scf|^2 =  1.738E-13

      iter #   8 total cpu time : 39899.9 secs   av.it.:  17.8
      thresh= 4.169E-08 alpha_mix =  0.700 |ddv_scf|^2 =  1.924E-14

      iter #   9 total cpu time : 39954.3 secs   av.it.:  18.5
      thresh= 1.387E-08 alpha_mix =  0.700 |ddv_scf|^2 =  1.064E-14

      iter #  10 total cpu time : 40003.1 secs   av.it.:  17.3
      thresh= 1.031E-08 alpha_mix =  0.700 |ddv_scf|^2 =  2.061E-15

      iter #  11 total cpu time : 40050.5 secs   av.it.:  18.5
      thresh= 4.540E-09 alpha_mix =  0.700 |ddv_scf|^2 =  2.356E-15

      iter #  12 total cpu time : 40089.3 secs   av.it.:  16.7
      thresh= 4.854E-09 alpha_mix =  0.700 |ddv_scf|^2 =  6.341E-17

     End of self-consistent calculation

     Convergence has been achieved 


     Representation #  29 mode #  29

     Self-consistent Calculation

      iter #   1 total cpu time : 40165.2 secs   av.it.:   7.0
      thresh= 1.000E-02 alpha_mix =  0.700 |ddv_scf|^2 =  2.006E-07

      iter #   2 total cpu time : 40216.6 secs   av.it.:  19.2
      thresh= 4.478E-05 alpha_mix =  0.700 |ddv_scf|^2 =  7.551E-06

      iter #   3 total cpu time : 40258.8 secs   av.it.:  15.7
      thresh= 2.748E-04 alpha_mix =  0.700 |ddv_scf|^2 =  2.006E-07

      iter #   4 total cpu time : 40299.3 secs   av.it.:  16.6
      thresh= 4.479E-05 alpha_mix =  0.700 |ddv_scf|^2 =  1.924E-09

      iter #   5 total cpu time : 40357.6 secs   av.it.:  17.4
      thresh= 4.386E-06 alpha_mix =  0.700 |ddv_scf|^2 =  2.078E-11

      iter #   6 total cpu time : 40402.4 secs   av.it.:  18.1
      thresh= 4.559E-07 alpha_mix =  0.700 |ddv_scf|^2 =  3.045E-12

      iter #   7 total cpu time : 40453.3 secs   av.it.:  17.9
      thresh= 1.745E-07 alpha_mix =  0.700 |ddv_scf|^2 =  4.626E-13

      iter #   8 total cpu time : 40504.6 secs   av.it.:  17.5
      thresh= 6.802E-08 alpha_mix =  0.700 |ddv_scf|^2 =  1.773E-13

      iter #   9 total cpu time : 40553.9 secs   av.it.:  17.0
      thresh= 4.210E-08 alpha_mix =  0.700 |ddv_scf|^2 =  9.385E-15

      iter #  10 total cpu time : 40604.7 secs   av.it.:  18.1
      thresh= 9.688E-09 alpha_mix =  0.700 |ddv_scf|^2 =  4.109E-15

      iter #  11 total cpu time : 40663.5 secs   av.it.:  17.6
      thresh= 6.410E-09 alpha_mix =  0.700 |ddv_scf|^2 =  6.242E-16

      iter #  12 total cpu time : 40714.5 secs   av.it.:  17.7
      thresh= 2.498E-09 alpha_mix =  0.700 |ddv_scf|^2 =  1.893E-17

     End of self-consistent calculation

     Convergence has been achieved 


     Representation #  30 mode #  30

     Self-consistent Calculation

      iter #   1 total cpu time : 40816.2 secs   av.it.:   6.8
      thresh= 1.000E-02 alpha_mix =  0.700 |ddv_scf|^2 =  1.629E-07

      iter #   2 total cpu time : 40868.5 secs   av.it.:  18.9
      thresh= 4.036E-05 alpha_mix =  0.700 |ddv_scf|^2 =  5.423E-06

      iter #   3 total cpu time : 40921.8 secs   av.it.:  15.8
      thresh= 2.329E-04 alpha_mix =  0.700 |ddv_scf|^2 =  2.291E-07

      iter #   4 total cpu time : 40977.5 secs   av.it.:  16.5
      thresh= 4.786E-05 alpha_mix =  0.700 |ddv_scf|^2 =  1.878E-09

      iter #   5 total cpu time : 41036.1 secs   av.it.:  17.4
      thresh= 4.333E-06 alpha_mix =  0.700 |ddv_scf|^2 =  2.159E-11

      iter #   6 total cpu time : 41093.9 secs   av.it.:  17.9
      thresh= 4.647E-07 alpha_mix =  0.700 |ddv_scf|^2 =  2.448E-12

      iter #   7 total cpu time : 41142.6 secs   av.it.:  18.1
      thresh= 1.565E-07 alpha_mix =  0.700 |ddv_scf|^2 =  4.989E-13

      iter #   8 total cpu time : 41189.5 secs   av.it.:  17.5
      thresh= 7.063E-08 alpha_mix =  0.700 |ddv_scf|^2 =  1.768E-13

      iter #   9 total cpu time : 41235.1 secs   av.it.:  17.2
      thresh= 4.205E-08 alpha_mix =  0.700 |ddv_scf|^2 =  1.110E-14

      iter #  10 total cpu time : 41273.7 secs   av.it.:  18.4
      thresh= 1.054E-08 alpha_mix =  0.700 |ddv_scf|^2 =  1.000E-14

      iter #  11 total cpu time : 41317.4 secs   av.it.:  17.2
      thresh= 1.000E-08 alpha_mix =  0.700 |ddv_scf|^2 =  7.662E-16

      iter #  12 total cpu time : 41356.8 secs   av.it.:  17.6
      thresh= 2.768E-09 alpha_mix =  0.700 |ddv_scf|^2 =  5.385E-17

     End of self-consistent calculation

     Convergence has been achieved 


     Representation #  31 mode #  31

     Self-consistent Calculation

      iter #   1 total cpu time : 41446.4 secs   av.it.:   6.3
      thresh= 1.000E-02 alpha_mix =  0.700 |ddv_scf|^2 =  4.228E-08

      iter #   2 total cpu time : 41499.3 secs   av.it.:  19.2
      thresh= 2.056E-05 alpha_mix =  0.700 |ddv_scf|^2 =  1.750E-06

      iter #   3 total cpu time : 41552.0 secs   av.it.:  15.6
      thresh= 1.323E-04 alpha_mix =  0.700 |ddv_scf|^2 =  2.483E-08

      iter #   4 total cpu time : 41608.4 secs   av.it.:  16.6
      thresh= 1.576E-05 alpha_mix =  0.700 |ddv_scf|^2 =  1.110E-09

      iter #   5 total cpu time : 41668.7 secs   av.it.:  16.8
      thresh= 3.332E-06 alpha_mix =  0.700 |ddv_scf|^2 =  8.919E-12

      iter #   6 total cpu time : 41728.4 secs   av.it.:  17.9
      thresh= 2.986E-07 alpha_mix =  0.700 |ddv_scf|^2 =  3.836E-13

      iter #   7 total cpu time : 41792.7 secs   av.it.:  18.5
      thresh= 6.194E-08 alpha_mix =  0.700 |ddv_scf|^2 =  1.026E-13

      iter #   8 total cpu time : 41851.3 secs   av.it.:  17.9
      thresh= 3.204E-08 alpha_mix =  0.700 |ddv_scf|^2 =  1.852E-14

      iter #   9 total cpu time : 41915.0 secs   av.it.:  17.9
      thresh= 1.361E-08 alpha_mix =  0.700 |ddv_scf|^2 =  8.802E-16

      iter #  10 total cpu time : 41970.0 secs   av.it.:  18.6
      thresh= 2.967E-09 alpha_mix =  0.700 |ddv_scf|^2 =  2.645E-15

      iter #  11 total cpu time : 42016.4 secs   av.it.:  17.1
      thresh= 5.143E-09 alpha_mix =  0.700 |ddv_scf|^2 =  1.204E-15

      iter #  12 total cpu time : 42060.3 secs   av.it.:  17.0
      thresh= 3.470E-09 alpha_mix =  0.700 |ddv_scf|^2 =  1.017E-16

      iter #  13 total cpu time : 42098.7 secs   av.it.:  17.2
      thresh= 1.009E-09 alpha_mix =  0.700 |ddv_scf|^2 =  1.068E-17

     End of self-consistent calculation

     Convergence has been achieved 


     Representation #  32 mode #  32

     Self-consistent Calculation

      iter #   1 total cpu time : 42187.0 secs   av.it.:   6.9
      thresh= 1.000E-02 alpha_mix =  0.700 |ddv_scf|^2 =  1.518E-07

      iter #   2 total cpu time : 42234.4 secs   av.it.:  19.0
      thresh= 3.896E-05 alpha_mix =  0.700 |ddv_scf|^2 =  5.029E-06

      iter #   3 total cpu time : 42300.5 secs   av.it.:  15.8
      thresh= 2.243E-04 alpha_mix =  0.700 |ddv_scf|^2 =  2.050E-07

      iter #   4 total cpu time : 42353.4 secs   av.it.:  16.5
      thresh= 4.528E-05 alpha_mix =  0.700 |ddv_scf|^2 =  1.505E-09

      iter #   5 total cpu time : 42413.6 secs   av.it.:  17.5
      thresh= 3.880E-06 alpha_mix =  0.700 |ddv_scf|^2 =  1.760E-11

      iter #   6 total cpu time : 42456.0 secs   av.it.:  18.1
      thresh= 4.195E-07 alpha_mix =  0.700 |ddv_scf|^2 =  2.025E-12

      iter #   7 total cpu time : 42495.8 secs   av.it.:  18.2
      thresh= 1.423E-07 alpha_mix =  0.700 |ddv_scf|^2 =  4.929E-13

      iter #   8 total cpu time : 42538.8 secs   av.it.:  17.7
      thresh= 7.020E-08 alpha_mix =  0.700 |ddv_scf|^2 =  2.055E-13

      iter #   9 total cpu time : 42585.9 secs   av.it.:  17.3
      thresh= 4.533E-08 alpha_mix =  0.700 |ddv_scf|^2 =  1.010E-14

      iter #  10 total cpu time : 42639.9 secs   av.it.:  18.5
      thresh= 1.005E-08 alpha_mix =  0.700 |ddv_scf|^2 =  9.611E-15

      iter #  11 total cpu time : 42700.4 secs   av.it.:  17.2
      thresh= 9.804E-09 alpha_mix =  0.700 |ddv_scf|^2 =  5.466E-16

      iter #  12 total cpu time : 42745.0 secs   av.it.:  17.9
      thresh= 2.338E-09 alpha_mix =  0.700 |ddv_scf|^2 =  5.138E-17

     End of self-consistent calculation

     Convergence has been achieved 


     Representation #  33 mode #  33

     Self-consistent Calculation

      iter #   1 total cpu time : 42808.5 secs   av.it.:   6.4
      thresh= 1.000E-02 alpha_mix =  0.700 |ddv_scf|^2 =  3.229E-08

      iter #   2 total cpu time : 42857.9 secs   av.it.:  18.9
      thresh= 1.797E-05 alpha_mix =  0.700 |ddv_scf|^2 =  4.951E-07

      iter #   3 total cpu time : 42906.0 secs   av.it.:  16.2
      thresh= 7.036E-05 alpha_mix =  0.700 |ddv_scf|^2 =  9.865E-08

      iter #   4 total cpu time : 42977.9 secs   av.it.:  16.4
      thresh= 3.141E-05 alpha_mix =  0.700 |ddv_scf|^2 =  2.317E-09

      iter #   5 total cpu time : 43037.6 secs   av.it.:  16.9
      thresh= 4.814E-06 alpha_mix =  0.700 |ddv_scf|^2 =  9.826E-11

      iter #   6 total cpu time : 43089.4 secs   av.it.:  16.7
      thresh= 9.913E-07 alpha_mix =  0.700 |ddv_scf|^2 =  1.355E-12

      iter #   7 total cpu time : 43140.0 secs   av.it.:  18.2
      thresh= 1.164E-07 alpha_mix =  0.700 |ddv_scf|^2 =  1.124E-13

      iter #   8 total cpu time : 43190.6 secs   av.it.:  18.2
      thresh= 3.352E-08 alpha_mix =  0.700 |ddv_scf|^2 =  1.331E-14

      iter #   9 total cpu time : 43243.8 secs   av.it.:  18.8
      thresh= 1.154E-08 alpha_mix =  0.700 |ddv_scf|^2 =  2.915E-15

      iter #  10 total cpu time : 43288.2 secs   av.it.:  18.6
      thresh= 5.399E-09 alpha_mix =  0.700 |ddv_scf|^2 =  2.885E-15

      iter #  11 total cpu time : 43332.2 secs   av.it.:  17.4
      thresh= 5.372E-09 alpha_mix =  0.700 |ddv_scf|^2 =  3.223E-15

      iter #  12 total cpu time : 43369.0 secs   av.it.:  16.1
      thresh= 5.677E-09 alpha_mix =  0.700 |ddv_scf|^2 =  1.500E-17

     End of self-consistent calculation

     Convergence has been achieved 

     Number of q in the star =    3
     List of q in the star:
          1   0.288675135  -0.500000000   0.000000000
          2  -0.577350269   0.000000000   0.000000000
          3   0.288675135   0.500000000   0.000000000

     Diagonalizing the dynamical matrix

     q = (    0.288675135  -0.500000000   0.000000000 ) 

 **************************************************************************
     freq (    1) =       0.950829 [THz] =      31.716236 [cm-1]
     freq (    2) =       1.216723 [THz] =      40.585502 [cm-1]
     freq (    3) =       1.252166 [THz] =      41.767756 [cm-1]
     freq (    4) =       1.506917 [THz] =      50.265348 [cm-1]
     freq (    5) =       1.692049 [THz] =      56.440686 [cm-1]
     freq (    6) =       2.013598 [THz] =      67.166386 [cm-1]
     freq (    7) =       2.124610 [THz] =      70.869373 [cm-1]
     freq (    8) =       2.140672 [THz] =      71.405143 [cm-1]
     freq (    9) =       2.292963 [THz] =      76.485016 [cm-1]
     freq (   10) =       2.395282 [THz] =      79.897997 [cm-1]
     freq (   11) =       2.491866 [THz] =      83.119704 [cm-1]
     freq (   12) =       2.511716 [THz] =      83.781830 [cm-1]
     freq (   13) =       2.753699 [THz] =      91.853526 [cm-1]
     freq (   14) =       2.845985 [THz] =      94.931840 [cm-1]
     freq (   15) =       3.003960 [THz] =     100.201309 [cm-1]
     freq (   16) =       3.139412 [THz] =     104.719524 [cm-1]
     freq (   17) =       3.191465 [THz] =     106.455803 [cm-1]
     freq (   18) =       3.197118 [THz] =     106.644388 [cm-1]
     freq (   19) =       3.275902 [THz] =     109.272334 [cm-1]
     freq (   20) =       3.371478 [THz] =     112.460415 [cm-1]
     freq (   21) =       3.444511 [THz] =     114.896503 [cm-1]
     freq (   22) =       3.618013 [THz] =     120.683924 [cm-1]
     freq (   23) =       3.771503 [THz] =     125.803806 [cm-1]
     freq (   24) =       3.856907 [THz] =     128.652559 [cm-1]
     freq (   25) =       5.029583 [THz] =     167.768831 [cm-1]
     freq (   26) =       5.304481 [THz] =     176.938453 [cm-1]
     freq (   27) =       5.740530 [THz] =     191.483481 [cm-1]
     freq (   28) =       5.870376 [THz] =     195.814674 [cm-1]
     freq (   29) =       5.938665 [THz] =     198.092558 [cm-1]
     freq (   30) =       6.258055 [THz] =     208.746250 [cm-1]
     freq (   31) =       7.002679 [THz] =     233.584212 [cm-1]
     freq (   32) =       7.104794 [THz] =     236.990411 [cm-1]
     freq (   33) =       7.330239 [THz] =     244.510460 [cm-1]
 **************************************************************************

     Mode symmetry, C_s (m)     point group:

     freq (   1-   1) =         31.7  [cm-1]   --> A'                 
     freq (   2-   2) =         40.6  [cm-1]   --> A'                 
     freq (   3-   3) =         41.8  [cm-1]   --> A''                
     freq (   4-   4) =         50.3  [cm-1]   --> A''                
     freq (   5-   5) =         56.4  [cm-1]   --> A''                
     freq (   6-   6) =         67.2  [cm-1]   --> A'                 
     freq (   7-   7) =         70.9  [cm-1]   --> A'                 
     freq (   8-   8) =         71.4  [cm-1]   --> A''                
     freq (   9-   9) =         76.5  [cm-1]   --> A'                 
     freq (  10-  10) =         79.9  [cm-1]   --> A'                 
     freq (  11-  11) =         83.1  [cm-1]   --> A''                
     freq (  12-  12) =         83.8  [cm-1]   --> A'                 
     freq (  13-  13) =         91.9  [cm-1]   --> A''                
     freq (  14-  14) =         94.9  [cm-1]   --> A'                 
     freq (  15-  15) =        100.2  [cm-1]   --> A''                
     freq (  16-  16) =        104.7  [cm-1]   --> A'                 
     freq (  17-  17) =        106.5  [cm-1]   --> A''                
     freq (  18-  18) =        106.6  [cm-1]   --> A'                 
     freq (  19-  19) =        109.3  [cm-1]   --> A'                 
     freq (  20-  20) =        112.5  [cm-1]   --> A''                
     freq (  21-  21) =        114.9  [cm-1]   --> A'                 
     freq (  22-  22) =        120.7  [cm-1]   --> A'                 
     freq (  23-  23) =        125.8  [cm-1]   --> A''                
     freq (  24-  24) =        128.7  [cm-1]   --> A'                 
     freq (  25-  25) =        167.8  [cm-1]   --> A''                
     freq (  26-  26) =        176.9  [cm-1]   --> A'                 
     freq (  27-  27) =        191.5  [cm-1]   --> A''                
     freq (  28-  28) =        195.8  [cm-1]   --> A'                 
     freq (  29-  29) =        198.1  [cm-1]   --> A''                
     freq (  30-  30) =        208.7  [cm-1]   --> A'                 
     freq (  31-  31) =        233.6  [cm-1]   --> A'                 
     freq (  32-  32) =        237.0  [cm-1]   --> A''                
     freq (  33-  33) =        244.5  [cm-1]   --> A'                 

     init_run     :      0.70s CPU      1.83s WALL (       1 calls)
     electrons    :     65.94s CPU     78.23s WALL (       1 calls)

     Called by init_run:
     wfcinit      :      0.00s CPU      0.21s WALL (       1 calls)
     potinit      :      0.10s CPU      0.97s WALL (       1 calls)
     hinit0       :      0.01s CPU      0.01s WALL (       1 calls)

     Called by electrons:
     c_bands      :     65.29s CPU     77.52s WALL (       1 calls)
     v_of_rho     :      0.16s CPU      0.18s WALL (       2 calls)

     Called by c_bands:
     init_us_2    :     12.47s CPU     13.37s WALL (    1597 calls)
     cegterg      :     53.75s CPU     57.53s WALL (       9 calls)

     Called by *egterg:
     cdiaghg      :      6.71s CPU      6.78s WALL (     166 calls)
     h_psi        :   8195.55s CPU   8957.10s WALL (   78629 calls)
     g_psi        :      0.25s CPU      0.26s WALL (     162 calls)

     Called by h_psi:
     h_psi:calbec :    990.70s CPU   1011.40s WALL (   78629 calls)
     vloc_psi     :   6117.30s CPU   6839.56s WALL (   78629 calls)
     add_vuspsi   :    911.90s CPU    927.73s WALL (   78629 calls)

     General routines
     calbec       :   2107.83s CPU   2145.18s WALL (  157531 calls)
     fft          :     47.10s CPU     55.74s WALL (   11267 calls)
     ffts         :    211.03s CPU    215.40s WALL (    3850 calls)
     fftw         :   8095.44s CPU   8884.97s WALL ( 4878594 calls)
     davcio       :      2.12s CPU   5956.98s WALL (   15117 calls)

     Parallel routines

     PHONON       :  32990.95s CPU  43426.58s WALL

     INITIALIZATION: 
     phq_setup    :      0.37s CPU      0.60s WALL (       2 calls)
     phq_init     :     15.66s CPU     21.60s WALL (       2 calls)

     phq_init     :     15.66s CPU     21.60s WALL (       2 calls)
     init_vloc    :      0.01s CPU      0.01s WALL (       2 calls)
     init_us_1    :      0.00s CPU      0.00s WALL (       2 calls)
     init_us_2    :     12.47s CPU     13.37s WALL (    1597 calls)

     DYNAMICAL MATRIX:
     dynmat0      :     10.25s CPU     13.84s WALL (       2 calls)
     dynmat_us    :      8.80s CPU     10.21s WALL (       2 calls)
     d2ionq       :      0.35s CPU      0.35s WALL (       2 calls)
     phqscf       :  32853.87s CPU  43182.37s WALL (       2 calls)
     dynmatrix    :      9.70s CPU      9.80s WALL (       2 calls)

     phqscf       :  32853.87s CPU  43182.37s WALL (       2 calls)
     solve_linter :  32714.02s CPU  42811.41s WALL (      55 calls)
     sth_kernel   :  17550.17s CPU  21747.42s WALL (     827 calls)
     h_prec       :   1453.14s CPU   1465.63s WALL (    1389 calls)
     apply_dpot_b :   1639.70s CPU   1696.22s WALL (    1414 calls)
     ortho        :    200.24s CPU    203.57s WALL (    1513 calls)
     cgsolve      :  12338.21s CPU  13185.18s WALL (    1513 calls)
     incdrhoscf   :   1109.15s CPU   1168.66s WALL (    1513 calls)
                                        0.00s GPU  (    1513 calls)
     dv_of_drho   :     78.10s CPU     87.98s WALL (     951 calls)
     mix_pot      :   3073.74s CPU   6384.15s WALL (     827 calls)
     ef_shift     :      3.79s CPU      5.33s WALL (     265 calls)
     ef_shift_wfc :      0.04s CPU     35.90s WALL (      22 calls)
     localdos     :    152.29s CPU    154.55s WALL (      22 calls)
     drhodv       :    138.56s CPU    193.78s WALL (      55 calls)
     psymdvscf    :    538.42s CPU    604.17s WALL (     827 calls)

     dvqpsi_us    :    248.20s CPU    254.18s WALL (      99 calls)
                                        0.00s GPU  (      99 calls)
     dvqpsi_us_on :     21.17s CPU     21.59s WALL (      99 calls)

     add_vuspsi   :    911.90s CPU    927.73s WALL (   78629 calls)


      General routines
     calbec       :   2107.83s CPU   2145.18s WALL (  157531 calls)
     fft          :     47.10s CPU     55.74s WALL (   11267 calls)
     ffts         :    211.03s CPU    215.40s WALL (    3850 calls)
     fftw         :   8095.44s CPU   8884.97s WALL ( 4878594 calls)
     davcio       :      2.12s CPU   5956.98s WALL (   15117 calls)
     write_rec    :      5.32s CPU   2201.37s WALL (     882 calls)

      Additional routines
     ch_psi       :  11295.43s CPU  12110.33s WALL (   78454 calls)
     last         :   2657.24s CPU   2701.22s WALL (   78454 calls)
     Hesh         :    215.99s CPU    219.76s WALL (   78454 calls)
     ch_psi_all_k :   2440.42s CPU   2480.88s WALL (   78454 calls)
                                        0.00s GPU  (   78454 calls)
     ch_psi_calbe :    942.53s CPU    956.56s WALL (   78454 calls)
                                        0.00s GPU  (   78454 calls)
     h_psi_bgrp   :   8195.85s CPU   8957.27s WALL (   78629 calls)
     h_psi        :   8195.55s CPU   8957.10s WALL (   78629 calls)
     h_psi:pot    :   8020.93s CPU   8779.27s WALL (   78629 calls)
     h_psi:calbec :    990.70s CPU   1011.40s WALL (   78629 calls)
     s_psi_bgrp   :    312.36s CPU    319.16s WALL (  158421 calls)


     PHONON       :  32990.95s CPU  43426.59s WALL


   This run was terminated on:  23:23:15   8May2025            

=------------------------------------------------------------------------------=
   JOB DONE.
=------------------------------------------------------------------------------=
