
     Program PWSCF v.7.3.1 starts on  8May2025 at 11:16: 2 

     This program is part of the open-source Quantum ESPRESSO suite
     for quantum simulation of materials; please cite
         "P. Giannozzi et al., J. Phys.:Condens. Matter 21 395502 (2009);
         "P. Giannozzi et al., J. Phys.:Condens. Matter 29 465901 (2017);
         "P. Giannozzi et al., J. Chem. Phys. 152 154105 (2020);
          URL http://www.quantum-espresso.org", 
     in publications or presentations arising from this work. More details at
     http://www.quantum-espresso.org/quote

     Parallel version (MPI & OpenMP), running on     384 processor cores
     Number of MPI processes:               384
     Threads/MPI process:                     1

     MPI processes distributed on     2 nodes
     344640 MiB available memory on the printing compute node when the environment starts

     Waiting for input...
     Reading input from standard input
Warning: card &CELL ignored
Warning: card / ignored
Warning: card &FCP ignored
Warning: card / ignored
Warning: card &RISM ignored
Warning: card / ignored

     Current dimensions of program PWSCF are:
     Max number of different atomic species (ntypx) = 10
     Max number of k-points (npk) =  40000
     Max angular momentum in pseudopotentials (lmaxx) =  4

     IMPORTANT: XC functional enforced from input :
     Exchange-correlation= PBE
                           (   1   4   3   4   0   0   0)
     Any further DFT definition will be discarded
     Please, verify this is what you really want

     Message from routine setup:
     using ibrav=0 with symmetry is DISCOURAGED, use correct ibrav instead

     K-points division:     npool     =      12
     R & G space division:  proc/nbgrp/npool/nimage =      32
     Subspace diagonalization in iterative solution of the eigenvalue problem:
     a serial algorithm will be used

     Message from routine divide_et_impera:
     suboptimal parallelization: some nodes have no k-points

     Parallelization info
     --------------------
     sticks:   dense  smooth     PW     G-vecs:    dense   smooth      PW
     Min         179     179     47                49361    49361    6723
     Max         180     180     48                49373    49373    6748
     Sum        5731    5731   1519              1579823  1579823  215427

     Using Slab Decomposition



     bravais-lattice index     =            0
     lattice parameter (alat)  =      14.4200  a.u.
     unit-cell volume          =   11694.9391 (a.u.)^3
     number of atoms/cell      =           11
     number of atomic types    =            2
     number of electrons       =       175.00
     number of Kohn-Sham states=          106
     kinetic-energy cutoff     =     100.0000  Ry
     charge density cutoff     =     400.0000  Ry
     scf convergence threshold =      1.0E-12
     mixing beta               =       0.7000
     number of iterations used =            8  plain     mixing
     Exchange-correlation= PBE
                           (   1   4   3   4   0   0   0)

     celldm(1)=  14.419985  celldm(2)=   0.000000  celldm(3)=   0.000000
     celldm(4)=   0.000000  celldm(5)=   0.000000  celldm(6)=   0.000000

     crystal axes: (cart. coord. in units of alat)
               a(1) = (   0.866025   0.500000   0.000000 )  
               a(2) = (  -0.866025   0.500000   0.000000 )  
               a(3) = (   0.000000   0.000000   4.503735 )  

     reciprocal axes: (cart. coord. in units 2 pi/alat)
               b(1) = (  0.577350  1.000000 -0.000000 )  
               b(2) = ( -0.577350  1.000000  0.000000 )  
               b(3) = (  0.000000 -0.000000  0.222038 )  


     PseudoPot. # 1 for Nb read from file:
     /scratch-shared/mroesner/Nb3X8_cDFPT/pp/Nb_ONCV_PBE-1.2.upf
     MD5 check sum: 2c750ac0b6910ff4cf0ab5f6c4124a64
     Pseudo is Norm-conserving, Zval = 13.0
     Generated using ONCVPSP code by D. R. Hamann
     Using radial grid of  602 points,  6 beta functions with: 
                l(1) =   0
                l(2) =   0
                l(3) =   1
                l(4) =   1
                l(5) =   2
                l(6) =   2

     PseudoPot. # 2 for I  read from file:
     /scratch-shared/mroesner/Nb3X8_cDFPT/pp/I_ONCV_PBE-1.2.upf
     MD5 check sum: 8277ef51204d8074ead4596f3b37a2aa
     Pseudo is Norm-conserving, Zval = 17.0
     Generated using ONCVPSP code by D. R. Hamann
     Using radial grid of  602 points,  6 beta functions with: 
                l(1) =   0
                l(2) =   0
                l(3) =   1
                l(4) =   1
                l(5) =   2
                l(6) =   2

     atomic species   valence    mass     pseudopotential
     Nb               13.00    92.90637     Nb( 1.00)
     I                17.00   126.90447     I ( 1.00)

      6 Sym. Ops. (no inversion) found


                                    s                        frac. trans.

      isym =  1     identity                                     

 cryst.   s( 1) = (     1          0          0      )
                  (     0          1          0      )
                  (     0          0          1      )

 cart.    s( 1) = (  1.0000000  0.0000000  0.0000000 )
                  (  0.0000000  1.0000000  0.0000000 )
                  (  0.0000000  0.0000000  1.0000000 )


      isym =  2     120 deg rotation - cryst. axis [0,0,1]       

 cryst.   s( 2) = (     0          1          0      )
                  (    -1         -1          0      )
                  (     0          0          1      )

 cart.    s( 2) = ( -0.5000000 -0.8660254  0.0000000 )
                  (  0.8660254 -0.5000000  0.0000000 )
                  (  0.0000000  0.0000000  1.0000000 )


      isym =  3     120 deg rotation - cryst. axis [0,0,-1]      

 cryst.   s( 3) = (    -1         -1          0      )
                  (     1          0          0      )
                  (     0          0          1      )

 cart.    s( 3) = ( -0.5000000  0.8660254  0.0000000 )
                  ( -0.8660254 -0.5000000  0.0000000 )
                  (  0.0000000  0.0000000  1.0000000 )


      isym =  4     inv. 180 deg rotation - cart. axis [0,1,0]   

 cryst.   s( 4) = (     0         -1          0      )
                  (    -1          0          0      )
                  (     0          0          1      )

 cart.    s( 4) = (  1.0000000 -0.0000000  0.0000000 )
                  (  0.0000000 -1.0000000  0.0000000 )
                  (  0.0000000  0.0000000  1.0000000 )


      isym =  5     inv. 180 deg rotation - cryst. axis [1,-1,0] 

 cryst.   s( 5) = (     1          1          0      )
                  (     0         -1          0      )
                  (     0          0          1      )

 cart.    s( 5) = ( -0.5000000  0.8660254  0.0000000 )
                  (  0.8660254  0.5000000  0.0000000 )
                  (  0.0000000  0.0000000  1.0000000 )


      isym =  6     inv. 180 deg rotation - cryst. axis [2,1,0]  

 cryst.   s( 6) = (    -1          0          0      )
                  (     1          1          0      )
                  (     0          0          1      )

 cart.    s( 6) = ( -0.5000000 -0.8660254  0.0000000 )
                  ( -0.8660254  0.5000000  0.0000000 )
                  (  0.0000000  0.0000000  1.0000000 )


   Cartesian axes

     site n.     atom                  positions (alat units)
         1        Nb     tau(   1) = (   0.6389149   0.5000000   0.4477546  )
         2        Nb     tau(   2) = (   0.1135552   0.8033165   0.4477546  )
         3        Nb     tau(   3) = (   0.1135552   0.1966835   0.4477546  )
         4        I      tau(   4) = (  -0.5777648   0.5000000   0.1969996  )
         5        I      tau(   5) = (  -0.1441303   0.2496410   0.1969996  )
         6        I      tau(   6) = (  -0.1441303   0.7503590   0.1969996  )
         7        I      tau(   7) = (   0.2886751   0.5000000   0.2557556  )
         8        I      tau(   8) = (  -0.0050724   0.5000000   0.6497473  )
         9        I      tau(   9) = (  -0.4304765   0.7456071   0.6497473  )
        10        I      tau(  10) = (  -0.4304765   0.2543929   0.6497473  )
        11        I      tau(  11) = (  -0.8660254   0.5000000   0.7304268  )

     --------------------------------------------
     DFT-D3 Dispersion Correction (no 3-body):
     --------------------------------------------
       Reference C6 values for interpolation: 

         atom   Coordination number   C6
         Nb         0.000          2950.50
         Nb         1.954          1161.16
         Nb         2.922           857.79
         I          0.000           703.93
         I          0.997           717.00

       Values used:

         atom   Coordination number  R0_AB[au]  C6      C8
         Nb         7.889            3.647    857.79 111659.18
         Nb         7.889            3.647    857.79 111659.18
         Nb         7.889            3.647    857.79 111659.18
         I          3.584            3.532    717.00  65856.01
         I          3.584            3.532    717.00  65856.01
         I          3.584            3.532    717.00  65856.01
         I          4.863            3.532    717.00  65856.01
         I          3.796            3.532    717.00  65856.01
         I          3.796            3.532    717.00  65856.01
         I          3.796            3.532    717.00  65856.01
         I          4.206            3.532    717.00  65856.01

         Molecular C6 ( Ry / a.u.^6 ) =     90972.34


   Crystallographic axes

     site n.     atom                  positions (cryst. coord.)
         1        Nb     tau(   1) = (  0.8688777  0.1311223  0.0994185  )
         2        Nb     tau(   2) = (  0.8688777  0.7377554  0.0994185  )
         3        Nb     tau(   3) = (  0.2622446  0.1311223  0.0994185  )
         4        I      tau(   4) = (  0.1664273  0.8335727  0.0437414  )
         5        I      tau(   5) = (  0.1664273  0.3328546  0.0437414  )
         6        I      tau(   6) = (  0.6671454  0.8335727  0.0437414  )
         7        I      tau(   7) = (  0.6666667  0.3333333  0.0567874  )
         8        I      tau(   8) = (  0.4970714  0.5029286  0.1442685  )
         9        I      tau(   9) = (  0.4970714  0.9941429  0.1442685  )
        10        I      tau(  10) = (  0.0058571  0.5029286  0.1442685  )
        11        I      tau(  11) = ( -0.0000000  1.0000000  0.1621824  )

     number of k points=     7  Gaussian smearing, width (Ry)=  0.0037
                       cart. coord. in units 2pi/alat
        k(    1) = (   0.0000000   0.0000000   0.0000000), wk =   0.0555556
        k(    2) = (  -0.0962250   0.1666667   0.0000000), wk =   0.3333333
        k(    3) = (  -0.1924501   0.3333333   0.0000000), wk =   0.3333333
        k(    4) = (   0.2886751  -0.5000000   0.0000000), wk =   0.1666667
        k(    5) = (   0.0000000   0.3333333   0.0000000), wk =   0.3333333
        k(    6) = (  -0.0962250   0.5000000   0.0000000), wk =   0.6666667
        k(    7) = (   0.0000000   0.6666667   0.0000000), wk =   0.1111111

                       cryst. coord.
        k(    1) = (   0.0000000   0.0000000   0.0000000), wk =   0.0555556
        k(    2) = (   0.0000000   0.1666667   0.0000000), wk =   0.3333333
        k(    3) = (   0.0000000   0.3333333   0.0000000), wk =   0.3333333
        k(    4) = (   0.0000000  -0.5000000   0.0000000), wk =   0.1666667
        k(    5) = (   0.1666667   0.1666667   0.0000000), wk =   0.3333333
        k(    6) = (   0.1666667   0.3333333   0.0000000), wk =   0.6666667
        k(    7) = (   0.3333333   0.3333333   0.0000000), wk =   0.1111111

     Dense  grid:  1579823 G-vectors     FFT dimensions: (  96,  96, 432)

     Dynamical RAM for                 wfc:       9.98 MB

     Dynamical RAM for     wfc (w. buffer):       9.98 MB

     Dynamical RAM for           str. fact:       1.51 MB

     Dynamical RAM for           local pot:       0.00 MB

     Dynamical RAM for          nlocal pot:      18.64 MB

     Dynamical RAM for                qrad:       3.21 MB

     Dynamical RAM for          rho,v,vnew:       5.21 MB

     Dynamical RAM for               rhoin:       1.74 MB

     Dynamical RAM for            rho*nmix:      12.05 MB

     Dynamical RAM for           G-vectors:       3.20 MB

     Dynamical RAM for          h,s,v(r/c):       2.06 MB

     Dynamical RAM for          <psi|beta>:       0.32 MB

     Dynamical RAM for                 psi:      19.96 MB

     Dynamical RAM for                hpsi:      19.96 MB

     Dynamical RAM for      wfcinit/wfcrot:      20.22 MB

     Estimated static dynamical RAM per process >      50.68 MB

     Estimated max dynamical RAM per process >     105.03 MB

     Estimated total dynamical RAM >      35.24 GB

     Initial potential from superposition of free atoms

     starting charge     174.4575, renormalised to     175.0000

     negative rho (up, down):  2.206E-03 0.000E+00
     Starting wfcs are random

     total cpu time spent up to now is        3.7 secs

     per-process dynamical memory:   210.5 Mb

     Self-consistent Calculation

     iteration #  1     ecut=   100.00 Ry     beta= 0.70
     Davidson diagonalization with overlap

---- Real-time Memory Report at c_bands before calling an iterative solver
           238 MiB given to the printing process from OS
           205 MiB allocation reported by mallinfo(arena+hblkhd)
        327965 MiB available memory on the node where the printing process lives
------------------
     ethr =  1.00E-02,  avg # of iterations = 15.7

     Threshold (ethr) on eigenvalues was too large:
     Diagonalizing with lowered threshold

     Davidson diagonalization with overlap

---- Real-time Memory Report at c_bands before calling an iterative solver
           265 MiB given to the printing process from OS
           207 MiB allocation reported by mallinfo(arena+hblkhd)
        326234 MiB available memory on the node where the printing process lives
------------------
     ethr =  3.80E-04,  avg # of iterations =  8.6

     negative rho (up, down):  3.352E-04 0.000E+00

     total cpu time spent up to now is       13.1 secs

     total energy              =   -1932.03033562 Ry
     estimated scf accuracy    <       0.67998208 Ry

     iteration #  2     ecut=   100.00 Ry     beta= 0.70
     Davidson diagonalization with overlap

---- Real-time Memory Report at c_bands before calling an iterative solver
           267 MiB given to the printing process from OS
           203 MiB allocation reported by mallinfo(arena+hblkhd)
        328459 MiB available memory on the node where the printing process lives
------------------
     ethr =  3.89E-04,  avg # of iterations = 14.3

     negative rho (up, down):  1.635E-04 0.000E+00

     total cpu time spent up to now is       19.4 secs

     total energy              =   -1931.81435609 Ry
     estimated scf accuracy    <       4.18298395 Ry

     iteration #  3     ecut=   100.00 Ry     beta= 0.70
     Davidson diagonalization with overlap

---- Real-time Memory Report at c_bands before calling an iterative solver
           280 MiB given to the printing process from OS
           205 MiB allocation reported by mallinfo(arena+hblkhd)
        328422 MiB available memory on the node where the printing process lives
------------------
     ethr =  3.89E-04,  avg # of iterations = 13.4

     negative rho (up, down):  7.570E-05 0.000E+00

     total cpu time spent up to now is       22.3 secs

     total energy              =   -1932.41809417 Ry
     estimated scf accuracy    <       0.03479631 Ry

     iteration #  4     ecut=   100.00 Ry     beta= 0.70
     Davidson diagonalization with overlap

---- Real-time Memory Report at c_bands before calling an iterative solver
           282 MiB given to the printing process from OS
           206 MiB allocation reported by mallinfo(arena+hblkhd)
        328430 MiB available memory on the node where the printing process lives
------------------
     ethr =  1.99E-05,  avg # of iterations = 13.4

     negative rho (up, down):  4.758E-05 0.000E+00

     total cpu time spent up to now is       25.1 secs

     total energy              =   -1932.42195650 Ry
     estimated scf accuracy    <       0.03366226 Ry

     iteration #  5     ecut=   100.00 Ry     beta= 0.70
     Davidson diagonalization with overlap

---- Real-time Memory Report at c_bands before calling an iterative solver
           286 MiB given to the printing process from OS
           208 MiB allocation reported by mallinfo(arena+hblkhd)
        328445 MiB available memory on the node where the printing process lives
------------------
     ethr =  1.92E-05,  avg # of iterations = 11.7

     negative rho (up, down):  1.520E-05 0.000E+00

     total cpu time spent up to now is       27.6 secs

     total energy              =   -1932.42769420 Ry
     estimated scf accuracy    <       0.01232580 Ry

     iteration #  6     ecut=   100.00 Ry     beta= 0.70
     Davidson diagonalization with overlap

---- Real-time Memory Report at c_bands before calling an iterative solver
           288 MiB given to the printing process from OS
           209 MiB allocation reported by mallinfo(arena+hblkhd)
        328383 MiB available memory on the node where the printing process lives
------------------
     ethr =  7.04E-06,  avg # of iterations = 10.1

     negative rho (up, down):  1.642E-06 0.000E+00

     total cpu time spent up to now is       29.7 secs

     total energy              =   -1932.42951673 Ry
     estimated scf accuracy    <       0.00038653 Ry

     iteration #  7     ecut=   100.00 Ry     beta= 0.70
     Davidson diagonalization with overlap

---- Real-time Memory Report at c_bands before calling an iterative solver
           289 MiB given to the printing process from OS
           211 MiB allocation reported by mallinfo(arena+hblkhd)
        328347 MiB available memory on the node where the printing process lives
------------------
     ethr =  2.21E-07,  avg # of iterations = 14.0

     negative rho (up, down):  1.419E-07 0.000E+00

     total cpu time spent up to now is       32.4 secs

     total energy              =   -1932.42959350 Ry
     estimated scf accuracy    <       0.00003397 Ry

     iteration #  8     ecut=   100.00 Ry     beta= 0.70
     Davidson diagonalization with overlap

---- Real-time Memory Report at c_bands before calling an iterative solver
           291 MiB given to the printing process from OS
           212 MiB allocation reported by mallinfo(arena+hblkhd)
        328299 MiB available memory on the node where the printing process lives
------------------
     ethr =  1.94E-08,  avg # of iterations = 13.1

     total cpu time spent up to now is       35.1 secs

     total energy              =   -1932.42960323 Ry
     estimated scf accuracy    <       0.00000429 Ry

     iteration #  9     ecut=   100.00 Ry     beta= 0.70
     Davidson diagonalization with overlap

---- Real-time Memory Report at c_bands before calling an iterative solver
           293 MiB given to the printing process from OS
           214 MiB allocation reported by mallinfo(arena+hblkhd)
        328263 MiB available memory on the node where the printing process lives
------------------
     ethr =  2.45E-09,  avg # of iterations = 14.6

     negative rho (up, down):  1.389E-08 0.000E+00

     total cpu time spent up to now is       37.8 secs

     total energy              =   -1932.42960424 Ry
     estimated scf accuracy    <       0.00000037 Ry

     iteration # 10     ecut=   100.00 Ry     beta= 0.70
     Davidson diagonalization with overlap

---- Real-time Memory Report at c_bands before calling an iterative solver
           295 MiB given to the printing process from OS
           215 MiB allocation reported by mallinfo(arena+hblkhd)
        328202 MiB available memory on the node where the printing process lives
------------------
     ethr =  2.10E-10,  avg # of iterations = 15.6

     negative rho (up, down):  1.469E-08 0.000E+00

     total cpu time spent up to now is       40.7 secs

     total energy              =   -1932.42960432 Ry
     estimated scf accuracy    <       0.00000002 Ry

     iteration # 11     ecut=   100.00 Ry     beta= 0.70
     Davidson diagonalization with overlap

---- Real-time Memory Report at c_bands before calling an iterative solver
           297 MiB given to the printing process from OS
           215 MiB allocation reported by mallinfo(arena+hblkhd)
        328192 MiB available memory on the node where the printing process lives
------------------
     c_bands:  2 eigenvalues not converged
     ethr =  1.38E-11,  avg # of iterations = 19.9

     total cpu time spent up to now is       44.1 secs

     total energy              =   -1932.42960433 Ry
     estimated scf accuracy    <          3.6E-09 Ry

     iteration # 12     ecut=   100.00 Ry     beta= 0.70
     Davidson diagonalization with overlap

---- Real-time Memory Report at c_bands before calling an iterative solver
           297 MiB given to the printing process from OS
           215 MiB allocation reported by mallinfo(arena+hblkhd)
        328140 MiB available memory on the node where the printing process lives
------------------
     c_bands:  1 eigenvalues not converged
     ethr =  2.08E-12,  avg # of iterations = 15.1

     total cpu time spent up to now is       46.8 secs

     total energy              =   -1932.42960433 Ry
     estimated scf accuracy    <          3.0E-10 Ry

     iteration # 13     ecut=   100.00 Ry     beta= 0.70
     Davidson diagonalization with overlap

---- Real-time Memory Report at c_bands before calling an iterative solver
           298 MiB given to the printing process from OS
           215 MiB allocation reported by mallinfo(arena+hblkhd)
        328178 MiB available memory on the node where the printing process lives
------------------
     ethr =  1.70E-13,  avg # of iterations = 18.4

     total cpu time spent up to now is       49.8 secs

     total energy              =   -1932.42960433 Ry
     estimated scf accuracy    <          4.5E-10 Ry

     iteration # 14     ecut=   100.00 Ry     beta= 0.70
     Davidson diagonalization with overlap

---- Real-time Memory Report at c_bands before calling an iterative solver
           298 MiB given to the printing process from OS
           215 MiB allocation reported by mallinfo(arena+hblkhd)
        328171 MiB available memory on the node where the printing process lives
------------------
     ethr =  1.70E-13,  avg # of iterations = 10.1

     total cpu time spent up to now is       52.3 secs

     total energy              =   -1932.42960433 Ry
     estimated scf accuracy    <          5.8E-11 Ry

     iteration # 15     ecut=   100.00 Ry     beta= 0.70
     Davidson diagonalization with overlap

---- Real-time Memory Report at c_bands before calling an iterative solver
           298 MiB given to the printing process from OS
           215 MiB allocation reported by mallinfo(arena+hblkhd)
        328195 MiB available memory on the node where the printing process lives
------------------
     ethr =  1.00E-13,  avg # of iterations = 16.9

     total cpu time spent up to now is       54.9 secs

     total energy              =   -1932.42960433 Ry
     estimated scf accuracy    <          1.5E-11 Ry

     iteration # 16     ecut=   100.00 Ry     beta= 0.70
     Davidson diagonalization with overlap

---- Real-time Memory Report at c_bands before calling an iterative solver
           298 MiB given to the printing process from OS
           215 MiB allocation reported by mallinfo(arena+hblkhd)
        328184 MiB available memory on the node where the printing process lives
------------------
     ethr =  1.00E-13,  avg # of iterations = 14.1

     total cpu time spent up to now is       57.3 secs

     total energy              =   -1932.42960433 Ry
     estimated scf accuracy    <          2.7E-12 Ry

     iteration # 17     ecut=   100.00 Ry     beta= 0.70
     Davidson diagonalization with overlap

---- Real-time Memory Report at c_bands before calling an iterative solver
           298 MiB given to the printing process from OS
           215 MiB allocation reported by mallinfo(arena+hblkhd)
        328194 MiB available memory on the node where the printing process lives
------------------
     ethr =  1.00E-13,  avg # of iterations = 12.9

     total cpu time spent up to now is       59.6 secs

     End of self-consistent calculation

          k = 0.0000 0.0000 0.0000 (197283 PWs)   bands (ev):

   -56.9421 -56.8976 -56.8976 -47.8587 -47.8512 -47.8512 -47.7955 -47.7955
   -47.1496 -47.1496 -47.1487 -47.1391 -47.1388 -47.1388 -47.1198 -47.1198
   -47.0591 -47.0591 -47.0438 -47.0419 -47.0419 -47.0383 -47.0189 -47.0189
   -47.0171 -47.0011 -47.0004 -47.0004 -46.6468 -46.6463 -46.6463 -46.6420
   -46.6420 -46.6410 -46.5696 -46.5696 -46.5676 -46.5113 -46.5093 -46.5093
   -46.5036 -46.5028 -46.5028 -33.1761 -33.0888 -33.0888 -33.0790 -33.0372
   -33.0372 -32.8870 -32.7474 -32.7474 -15.6481 -15.2229 -14.5440 -14.5221
   -14.5221 -14.3644 -13.9943 -13.9943  -7.1196  -7.1196  -6.8065  -6.4486
    -6.2920  -6.2920  -6.0350  -5.8796  -5.3183  -5.3183  -4.5815  -4.4541
    -4.4541  -4.3708  -4.2704  -4.2704  -3.8982  -3.8940  -3.8940  -3.6849
    -3.0846  -3.0846  -2.6666  -2.3461  -2.3461  -2.0882  -2.0882  -1.3562
    -0.4277  -0.4277  -0.0639   0.2144   0.2144   0.5748   0.6350   0.6350
     0.8639   0.8639   1.2500   1.7939   2.5027   2.5027   2.5730   2.7507
     3.0865   3.2586

     occupation numbers 
     1.0000   1.0000   1.0000   1.0000   1.0000   1.0000   1.0000   1.0000
     1.0000   1.0000   1.0000   1.0000   1.0000   1.0000   1.0000   1.0000
     1.0000   1.0000   1.0000   1.0000   1.0000   1.0000   1.0000   1.0000
     1.0000   1.0000   1.0000   1.0000   1.0000   1.0000   1.0000   1.0000
     1.0000   1.0000   1.0000   1.0000   1.0000   1.0000   1.0000   1.0000
     1.0000   1.0000   1.0000   1.0000   1.0000   1.0000   1.0000   1.0000
     1.0000   1.0000   1.0000   1.0000   1.0000   1.0000   1.0000   1.0000
     1.0000   1.0000   1.0000   1.0000   1.0000   1.0000   1.0000   1.0000
     1.0000   1.0000   1.0000   1.0000   1.0000   1.0000   1.0000   1.0000
     1.0000   1.0000   1.0000   1.0000   1.0000   1.0000   1.0000   1.0000
     1.0000   1.0000   1.0000   1.0000   1.0000   1.0000   1.0000   0.9815
     0.0000   0.0000   0.0000   0.0000   0.0000   0.0000   0.0000   0.0000
     0.0000   0.0000   0.0000   0.0000   0.0000   0.0000   0.0000   0.0000
     0.0000   0.0000

          k =-0.0962 0.1667 0.0000 (197376 PWs)   bands (ev):

   -56.9421 -56.8976 -56.8976 -47.8587 -47.8512 -47.8512 -47.7955 -47.7955
   -47.1496 -47.1495 -47.1488 -47.1391 -47.1388 -47.1388 -47.1199 -47.1198
   -47.0591 -47.0591 -47.0437 -47.0420 -47.0419 -47.0383 -47.0189 -47.0188
   -47.0172 -47.0011 -47.0005 -47.0004 -46.6468 -46.6463 -46.6463 -46.6420
   -46.6419 -46.6411 -46.5695 -46.5694 -46.5677 -46.5111 -46.5094 -46.5093
   -46.5036 -46.5029 -46.5028 -33.1752 -33.0886 -33.0880 -33.0785 -33.0375
   -33.0372 -32.8875 -32.7489 -32.7477 -15.6192 -15.1974 -14.5945 -14.5336
   -14.5252 -14.3590 -14.0237 -13.9937  -7.0202  -7.0200  -6.6577  -6.4204
    -6.2521  -6.2035  -5.9525  -5.8070  -5.3742  -5.3438  -4.7014  -4.6206
    -4.5185  -4.4842  -4.3160  -4.1752  -4.0371  -4.0123  -3.8323  -3.6207
    -3.2743  -3.0927  -2.7345  -2.6516  -2.4138  -2.1310  -2.1043  -1.3120
    -0.4403  -0.4151  -0.0383   0.1840   0.1922   0.4510   0.5315   0.5800
     0.8798   1.0267   1.2422   2.0012   2.6517   2.7628   2.7671   2.8893
     3.1865   3.2617

     occupation numbers 
     1.0000   1.0000   1.0000   1.0000   1.0000   1.0000   1.0000   1.0000
     1.0000   1.0000   1.0000   1.0000   1.0000   1.0000   1.0000   1.0000
     1.0000   1.0000   1.0000   1.0000   1.0000   1.0000   1.0000   1.0000
     1.0000   1.0000   1.0000   1.0000   1.0000   1.0000   1.0000   1.0000
     1.0000   1.0000   1.0000   1.0000   1.0000   1.0000   1.0000   1.0000
     1.0000   1.0000   1.0000   1.0000   1.0000   1.0000   1.0000   1.0000
     1.0000   1.0000   1.0000   1.0000   1.0000   1.0000   1.0000   1.0000
     1.0000   1.0000   1.0000   1.0000   1.0000   1.0000   1.0000   1.0000
     1.0000   1.0000   1.0000   1.0000   1.0000   1.0000   1.0000   1.0000
     1.0000   1.0000   1.0000   1.0000   1.0000   1.0000   1.0000   1.0000
     1.0000   1.0000   1.0000   1.0000   1.0000   1.0000   1.0000   0.7975
     0.0000   0.0000   0.0000   0.0000   0.0000   0.0000   0.0000   0.0000
     0.0000   0.0000   0.0000   0.0000   0.0000   0.0000   0.0000   0.0000
     0.0000   0.0000

          k =-0.1925 0.3333 0.0000 (197434 PWs)   bands (ev):

   -56.9421 -56.8976 -56.8976 -47.8587 -47.8512 -47.8512 -47.7955 -47.7955
   -47.1496 -47.1494 -47.1489 -47.1391 -47.1389 -47.1387 -47.1199 -47.1199
   -47.0591 -47.0591 -47.0434 -47.0423 -47.0419 -47.0383 -47.0189 -47.0185
   -47.0175 -47.0010 -47.0006 -47.0004 -46.6467 -46.6464 -46.6463 -46.6420
   -46.6418 -46.6412 -46.5695 -46.5692 -46.5680 -46.5109 -46.5097 -46.5093
   -46.5035 -46.5030 -46.5028 -33.1733 -33.0882 -33.0865 -33.0775 -33.0382
   -33.0372 -32.8886 -32.7517 -32.7482 -15.5585 -15.1127 -14.7545 -14.5371
   -14.5314 -14.3397 -14.0865 -13.9926  -6.7787  -6.7745  -6.4253  -6.2325
    -6.1498  -5.9502  -5.7883  -5.6221  -5.5194  -5.4385  -5.0082  -4.8580
    -4.8391  -4.5939  -4.3186  -4.3179  -4.1862  -4.1567  -3.7563  -3.7020
    -3.4489  -3.2239  -3.1503  -2.8239  -2.5660  -2.1994  -2.0984  -1.3067
    -0.4279  -0.4007  -0.0574   0.1092   0.1093   0.3219   0.5067   0.5557
     0.7961   1.0331   1.4321   2.4882   2.9259   3.1724   3.2118   3.3252
     3.4162   3.4791

     occupation numbers 
     1.0000   1.0000   1.0000   1.0000   1.0000   1.0000   1.0000   1.0000
     1.0000   1.0000   1.0000   1.0000   1.0000   1.0000   1.0000   1.0000
     1.0000   1.0000   1.0000   1.0000   1.0000   1.0000   1.0000   1.0000
     1.0000   1.0000   1.0000   1.0000   1.0000   1.0000   1.0000   1.0000
     1.0000   1.0000   1.0000   1.0000   1.0000   1.0000   1.0000   1.0000
     1.0000   1.0000   1.0000   1.0000   1.0000   1.0000   1.0000   1.0000
     1.0000   1.0000   1.0000   1.0000   1.0000   1.0000   1.0000   1.0000
     1.0000   1.0000   1.0000   1.0000   1.0000   1.0000   1.0000   1.0000
     1.0000   1.0000   1.0000   1.0000   1.0000   1.0000   1.0000   1.0000
     1.0000   1.0000   1.0000   1.0000   1.0000   1.0000   1.0000   1.0000
     1.0000   1.0000   1.0000   1.0000   1.0000   1.0000   1.0000   0.7529
     0.0000   0.0000   0.0000   0.0000   0.0000   0.0000   0.0000   0.0000
     0.0000   0.0000   0.0000   0.0000   0.0000   0.0000   0.0000   0.0000
     0.0000   0.0000

          k = 0.2887-0.5000 0.0000 (197578 PWs)   bands (ev):

   -56.9421 -56.8976 -56.8976 -47.8587 -47.8512 -47.8512 -47.7955 -47.7955
   -47.1496 -47.1493 -47.1490 -47.1390 -47.1389 -47.1387 -47.1199 -47.1199
   -47.0591 -47.0591 -47.0432 -47.0425 -47.0419 -47.0383 -47.0189 -47.0183
   -47.0177 -47.0009 -47.0007 -47.0004 -46.6467 -46.6465 -46.6463 -46.6420
   -46.6417 -46.6413 -46.5695 -46.5690 -46.5682 -46.5107 -46.5099 -46.5093
   -46.5034 -46.5030 -46.5028 -33.1724 -33.0880 -33.0857 -33.0770 -33.0385
   -33.0372 -32.8892 -32.7532 -32.7485 -15.5272 -14.9815 -14.9257 -14.5381
   -14.5345 -14.3247 -14.1222 -13.9921  -6.6124  -6.6042  -6.3637  -6.1082
    -6.0586  -5.8007  -5.6623  -5.5705  -5.5616  -5.3789  -5.1642  -5.0625
    -5.0148  -4.6473  -4.6060  -4.3360  -4.2916  -4.1889  -3.8192  -3.6091
    -3.6090  -3.3166  -3.2087  -2.8771  -2.6429  -2.2339  -2.0987  -1.3284
    -0.4051  -0.3918  -0.0886   0.0369   0.0794   0.2981   0.5360   0.5517
     0.7261   1.0299   1.5258   2.8542   3.0620   3.2703   3.4548   3.5959
     3.7411   3.7996

     occupation numbers 
     1.0000   1.0000   1.0000   1.0000   1.0000   1.0000   1.0000   1.0000
     1.0000   1.0000   1.0000   1.0000   1.0000   1.0000   1.0000   1.0000
     1.0000   1.0000   1.0000   1.0000   1.0000   1.0000   1.0000   1.0000
     1.0000   1.0000   1.0000   1.0000   1.0000   1.0000   1.0000   1.0000
     1.0000   1.0000   1.0000   1.0000   1.0000   1.0000   1.0000   1.0000
     1.0000   1.0000   1.0000   1.0000   1.0000   1.0000   1.0000   1.0000
     1.0000   1.0000   1.0000   1.0000   1.0000   1.0000   1.0000   1.0000
     1.0000   1.0000   1.0000   1.0000   1.0000   1.0000   1.0000   1.0000
     1.0000   1.0000   1.0000   1.0000   1.0000   1.0000   1.0000   1.0000
     1.0000   1.0000   1.0000   1.0000   1.0000   1.0000   1.0000   1.0000
     1.0000   1.0000   1.0000   1.0000   1.0000   1.0000   1.0000   0.9029
     0.0000   0.0000   0.0000   0.0000   0.0000   0.0000   0.0000   0.0000
     0.0000   0.0000   0.0000   0.0000   0.0000   0.0000   0.0000   0.0000
     0.0000   0.0000

          k = 0.0000 0.3333 0.0000 (197513 PWs)   bands (ev):

   -56.9421 -56.8976 -56.8976 -47.8587 -47.8512 -47.8512 -47.7955 -47.7955
   -47.1496 -47.1494 -47.1489 -47.1391 -47.1388 -47.1388 -47.1199 -47.1199
   -47.0591 -47.0591 -47.0435 -47.0422 -47.0419 -47.0383 -47.0189 -47.0186
   -47.0174 -47.0010 -47.0005 -47.0004 -46.6467 -46.6464 -46.6463 -46.6420
   -46.6419 -46.6412 -46.5695 -46.5692 -46.5679 -46.5110 -46.5096 -46.5093
   -46.5035 -46.5029 -46.5028 -33.1738 -33.0882 -33.0870 -33.0777 -33.0379
   -33.0373 -32.8884 -32.7509 -32.7482 -15.5742 -15.1420 -14.6657 -14.6229
   -14.4833 -14.3451 -14.0764 -13.9868  -6.8608  -6.8368  -6.4029  -6.3715
    -6.1706  -6.0243  -5.8369  -5.6657  -5.4760  -5.4067  -4.9878  -4.8158
    -4.6420  -4.6151  -4.4132  -4.1967  -4.0754  -4.0399  -3.8885  -3.5952
    -3.4545  -3.2488  -2.9729  -2.8364  -2.5459  -2.2044  -2.0898  -1.2775
    -0.4912  -0.3558  -0.0167   0.0968   0.1585   0.3408   0.4299   0.6266
     0.7911   1.1915   1.2187   2.3769   2.8715   3.0541   3.1262   3.1726
     3.3766   3.3987

     occupation numbers 
     1.0000   1.0000   1.0000   1.0000   1.0000   1.0000   1.0000   1.0000
     1.0000   1.0000   1.0000   1.0000   1.0000   1.0000   1.0000   1.0000
     1.0000   1.0000   1.0000   1.0000   1.0000   1.0000   1.0000   1.0000
     1.0000   1.0000   1.0000   1.0000   1.0000   1.0000   1.0000   1.0000
     1.0000   1.0000   1.0000   1.0000   1.0000   1.0000   1.0000   1.0000
     1.0000   1.0000   1.0000   1.0000   1.0000   1.0000   1.0000   1.0000
     1.0000   1.0000   1.0000   1.0000   1.0000   1.0000   1.0000   1.0000
     1.0000   1.0000   1.0000   1.0000   1.0000   1.0000   1.0000   1.0000
     1.0000   1.0000   1.0000   1.0000   1.0000   1.0000   1.0000   1.0000
     1.0000   1.0000   1.0000   1.0000   1.0000   1.0000   1.0000   1.0000
     1.0000   1.0000   1.0000   1.0000   1.0000   1.0000   1.0000   0.4439
     0.0000   0.0000   0.0000   0.0000   0.0000   0.0000   0.0000   0.0000
     0.0000   0.0000   0.0000   0.0000   0.0000   0.0000   0.0000   0.0000
     0.0000   0.0000

          k =-0.0962 0.5000 0.0000 (197529 PWs)   bands (ev):

   -56.9421 -56.8976 -56.8976 -47.8587 -47.8512 -47.8512 -47.7955 -47.7955
   -47.1496 -47.1493 -47.1490 -47.1390 -47.1389 -47.1387 -47.1199 -47.1199
   -47.0591 -47.0591 -47.0432 -47.0425 -47.0419 -47.0383 -47.0189 -47.0183
   -47.0177 -47.0009 -47.0007 -47.0004 -46.6467 -46.6465 -46.6463 -46.6420
   -46.6417 -46.6413 -46.5695 -46.5690 -46.5682 -46.5107 -46.5099 -46.5093
   -46.5034 -46.5030 -46.5028 -33.1724 -33.0877 -33.0861 -33.0770 -33.0383
   -33.0374 -32.8892 -32.7528 -32.7488 -15.5284 -15.0211 -14.8312 -14.6710
   -14.4530 -14.3240 -14.1393 -13.9776  -6.6434  -6.5974  -6.3066  -6.1496
    -6.0373  -5.7925  -5.6569  -5.6042  -5.5602  -5.4003  -5.2163  -5.0638
    -4.9283  -4.7635  -4.6085  -4.3057  -4.2021  -4.0340  -3.8180  -3.7589
    -3.5461  -3.3163  -3.2247  -2.9493  -2.6453  -2.2653  -2.1146  -1.2521
    -0.5403  -0.2867  -0.0423   0.0379   0.1012   0.2568   0.3757   0.6749
     0.7769   1.1185   1.3434   2.8693   3.1073   3.3484   3.4515   3.5045
     3.6251   3.7360

     occupation numbers 
     1.0000   1.0000   1.0000   1.0000   1.0000   1.0000   1.0000   1.0000
     1.0000   1.0000   1.0000   1.0000   1.0000   1.0000   1.0000   1.0000
     1.0000   1.0000   1.0000   1.0000   1.0000   1.0000   1.0000   1.0000
     1.0000   1.0000   1.0000   1.0000   1.0000   1.0000   1.0000   1.0000
     1.0000   1.0000   1.0000   1.0000   1.0000   1.0000   1.0000   1.0000
     1.0000   1.0000   1.0000   1.0000   1.0000   1.0000   1.0000   1.0000
     1.0000   1.0000   1.0000   1.0000   1.0000   1.0000   1.0000   1.0000
     1.0000   1.0000   1.0000   1.0000   1.0000   1.0000   1.0000   1.0000
     1.0000   1.0000   1.0000   1.0000   1.0000   1.0000   1.0000   1.0000
     1.0000   1.0000   1.0000   1.0000   1.0000   1.0000   1.0000   1.0000
     1.0000   1.0000   1.0000   1.0000   1.0000   1.0000   1.0000   0.1951
     0.0000   0.0000   0.0000   0.0000   0.0000   0.0000   0.0000   0.0000
     0.0000   0.0000   0.0000   0.0000   0.0000   0.0000   0.0000   0.0000
     0.0000   0.0000

          k = 0.0000 0.6667 0.0000 (197613 PWs)   bands (ev):

   -56.9421 -56.8976 -56.8976 -47.8587 -47.8512 -47.8512 -47.7955 -47.7955
   -47.1496 -47.1492 -47.1491 -47.1390 -47.1389 -47.1387 -47.1199 -47.1199
   -47.0591 -47.0591 -47.0429 -47.0428 -47.0419 -47.0383 -47.0189 -47.0181
   -47.0179 -47.0008 -47.0007 -47.0004 -46.6466 -46.6465 -46.6463 -46.6420
   -46.6416 -46.6414 -46.5695 -46.5688 -46.5684 -46.5105 -46.5101 -46.5093
   -46.5033 -46.5031 -46.5028 -33.1719 -33.0870 -33.0863 -33.0767 -33.0380
   -33.0378 -32.8895 -32.7532 -32.7494 -15.5144 -14.9086 -14.8585 -14.8063
   -14.4172 -14.3143 -14.1773 -13.9649  -6.5944  -6.3797  -6.2913  -6.1922
    -5.8924  -5.7756  -5.7039  -5.6269  -5.3721  -5.3200  -5.2514  -5.1332
    -5.0143  -4.9837  -4.8276  -4.2255  -4.2190  -4.0252  -3.8701  -3.8024
    -3.4404  -3.3748  -3.2550  -3.1421  -2.6564  -2.2870  -2.1673  -1.1781
    -0.6174  -0.2278  -0.0653   0.0923   0.1074   0.1685   0.2751   0.7480
     0.9625   0.9664   1.2978   3.1781   3.2745   3.3824   3.4765   3.5579
     3.6330   3.6600

     occupation numbers 
     1.0000   1.0000   1.0000   1.0000   1.0000   1.0000   1.0000   1.0000
     1.0000   1.0000   1.0000   1.0000   1.0000   1.0000   1.0000   1.0000
     1.0000   1.0000   1.0000   1.0000   1.0000   1.0000   1.0000   1.0000
     1.0000   1.0000   1.0000   1.0000   1.0000   1.0000   1.0000   1.0000
     1.0000   1.0000   1.0000   1.0000   1.0000   1.0000   1.0000   1.0000
     1.0000   1.0000   1.0000   1.0000   1.0000   1.0000   1.0000   1.0000
     1.0000   1.0000   1.0000   1.0000   1.0000   1.0000   1.0000   1.0000
     1.0000   1.0000   1.0000   1.0000   1.0000   1.0000   1.0000   1.0000
     1.0000   1.0000   1.0000   1.0000   1.0000   1.0000   1.0000   1.0000
     1.0000   1.0000   1.0000   1.0000   1.0000   1.0000   1.0000   1.0000
     1.0000   1.0000   1.0000   1.0000   1.0000   1.0000   1.0000   0.0016
     0.0000   0.0000   0.0000   0.0000   0.0000   0.0000   0.0000   0.0000
     0.0000   0.0000   0.0000   0.0000   0.0000   0.0000   0.0000   0.0000
     0.0000   0.0000

     the Fermi energy is    -1.2825 ev

!    total energy              =   -1932.42960433 Ry
     estimated scf accuracy    <          7.4E-14 Ry
     smearing contrib. (-TS)   =      -0.00142017 Ry
     internal energy E=F+TS    =   -1932.42818416 Ry

     The total energy is F=E-TS. E is the sum of the following terms:
     one-electron contribution =  -17021.47580483 Ry
     hartree contribution      =    8449.65906403 Ry
     xc contribution           =    -198.52500447 Ry
     ewald contribution        =    6838.06469353 Ry
     DFT-D3 Dispersion         =      -0.15113241 Ry

     convergence has been achieved in  17 iterations

     Forces acting on atoms (cartesian axes, Ry/au):

     atom    1 type  1   force =    -0.00018975    0.00000000    0.00022223
     atom    2 type  1   force =     0.00009487   -0.00016432    0.00022223
     atom    3 type  1   force =     0.00009487    0.00016432    0.00022223
     atom    4 type  2   force =    -0.00013011   -0.00000000   -0.00010471
     atom    5 type  2   force =     0.00006505   -0.00011267   -0.00010471
     atom    6 type  2   force =     0.00006505    0.00011267   -0.00010471
     atom    7 type  2   force =     0.00000000    0.00000000    0.00001035
     atom    8 type  2   force =     0.00001292    0.00000000   -0.00009436
     atom    9 type  2   force =    -0.00000646    0.00001119   -0.00009436
     atom   10 type  2   force =    -0.00000646   -0.00001119   -0.00009436
     atom   11 type  2   force =    -0.00000000   -0.00000000   -0.00007982
     The non-local contrib.  to forces
     atom    1 type  1   force =     0.15471480    0.00000000    0.03329542
     atom    2 type  1   force =    -0.07735740    0.13398695    0.03329542
     atom    3 type  1   force =    -0.07735740   -0.13398695    0.03329542
     atom    4 type  2   force =    -0.29527327   -0.00000000    0.43633741
     atom    5 type  2   force =     0.14763664   -0.25571416    0.43633741
     atom    6 type  2   force =     0.14763664    0.25571416    0.43633741
     atom    7 type  2   force =     0.00000000    0.00000000    0.38081660
     atom    8 type  2   force =     0.22320858   -0.00000000   -0.35427997
     atom    9 type  2   force =    -0.11160429    0.19330430   -0.35427997
     atom   10 type  2   force =    -0.11160429   -0.19330430   -0.35427997
     atom   11 type  2   force =     0.00000000    0.00000000   -0.62462185
     The ionic contribution  to forces
     atom    1 type  1   force =    -7.71949971   -0.00000000    2.07552463
     atom    2 type  1   force =     3.85974986   -6.68528285    2.07552463
     atom    3 type  1   force =     3.85974986    6.68528285    2.07552463
     atom    4 type  2   force =    11.82027587   -0.00000000 -106.50594791
     atom    5 type  2   force =    -5.91013793   10.23665918 -106.50594791
     atom    6 type  2   force =    -5.91013793  -10.23665918 -106.50594791
     atom    7 type  2   force =     0.00000000   -0.00000000  -85.53597014
     atom    8 type  2   force =    -5.72611748   -0.00000000   90.33826040
     atom    9 type  2   force =     2.86305874   -4.95896320   90.33826040
     atom   10 type  2   force =     2.86305874    4.95896320   90.33826040
     atom   11 type  2   force =    -0.00000000   -0.00000000  127.81245879
     The local contribution  to forces
     atom    1 type  1   force =     7.56449403    0.00000001   -2.10854360
     atom    2 type  1   force =    -3.78224699    6.55104402   -2.10854360
     atom    3 type  1   force =    -3.78224699   -6.55104399   -2.10854360
     atom    4 type  2   force =   -11.52531592    0.00000002  106.06826035
     atom    5 type  2   force =     5.76265795   -9.98121633  106.06826035
     atom    6 type  2   force =     5.76265795    9.98121638  106.06826035
     atom    7 type  2   force =     0.00000000    0.00000002   85.15618910
     atom    8 type  2   force =     5.50398817    0.00000001  -89.98355530
     atom    9 type  2   force =    -2.75199409    4.76659363  -89.98355530
     atom   10 type  2   force =    -2.75199409   -4.76659359  -89.98355530
     atom   11 type  2   force =    -0.00000002    0.00000002 -127.18680097
     The core correction contribution to forces
     atom    1 type  1   force =     0.00000000    0.00000000    0.00000000
     atom    2 type  1   force =     0.00000000    0.00000000    0.00000000
     atom    3 type  1   force =     0.00000000    0.00000000    0.00000000
     atom    4 type  2   force =     0.00000000    0.00000000    0.00000000
     atom    5 type  2   force =     0.00000000    0.00000000    0.00000000
     atom    6 type  2   force =     0.00000000    0.00000000    0.00000000
     atom    7 type  2   force =     0.00000000    0.00000000    0.00000000
     atom    8 type  2   force =     0.00000000    0.00000000    0.00000000
     atom    9 type  2   force =     0.00000000    0.00000000    0.00000000
     atom   10 type  2   force =     0.00000000    0.00000000    0.00000000
     atom   11 type  2   force =     0.00000000    0.00000000    0.00000000
     The Hubbard contrib.    to forces
     atom    1 type  1   force =     0.00000000    0.00000000    0.00000000
     atom    2 type  1   force =     0.00000000    0.00000000    0.00000000
     atom    3 type  1   force =     0.00000000    0.00000000    0.00000000
     atom    4 type  2   force =     0.00000000    0.00000000    0.00000000
     atom    5 type  2   force =     0.00000000    0.00000000    0.00000000
     atom    6 type  2   force =     0.00000000    0.00000000    0.00000000
     atom    7 type  2   force =     0.00000000    0.00000000    0.00000000
     atom    8 type  2   force =     0.00000000    0.00000000    0.00000000
     atom    9 type  2   force =     0.00000000    0.00000000    0.00000000
     atom   10 type  2   force =     0.00000000    0.00000000    0.00000000
     atom   11 type  2   force =     0.00000000    0.00000000    0.00000000
     The SCF correction term to forces
     atom    1 type  1   force =     0.00000032    0.00000000    0.00000007
     atom    2 type  1   force =    -0.00000016    0.00000028    0.00000007
     atom    3 type  1   force =    -0.00000016   -0.00000028    0.00000007
     atom    4 type  2   force =     0.00000004    0.00000000   -0.00000033
     atom    5 type  2   force =    -0.00000002    0.00000003   -0.00000033
     atom    6 type  2   force =    -0.00000002   -0.00000003   -0.00000033
     atom    7 type  2   force =    -0.00000000   -0.00000000    0.00000014
     atom    8 type  2   force =    -0.00000006   -0.00000000    0.00000015
     atom    9 type  2   force =     0.00000003   -0.00000005    0.00000015
     atom   10 type  2   force =     0.00000003    0.00000005    0.00000015
     atom   11 type  2   force =     0.00000000    0.00000000   -0.00000058

     DFT-D3 dispersion contribution to forces:
     atom    1 type  1   force =     0.00010081    0.00000000   -0.00004293
     atom    2 type  1   force =    -0.00005040    0.00008730   -0.00004293
     atom    3 type  1   force =    -0.00005040   -0.00008730   -0.00004293
     atom    4 type  2   force =     0.00018317    0.00000000    0.00125714
     atom    5 type  2   force =    -0.00009158    0.00015863    0.00125714
     atom    6 type  2   force =    -0.00009158   -0.00015863    0.00125714
     atom    7 type  2   force =     0.00000000    0.00000000   -0.00101397
     atom    8 type  2   force =    -0.00106632    0.00000000   -0.00050828
     atom    9 type  2   force =     0.00053316   -0.00092346   -0.00050828
     atom   10 type  2   force =     0.00053316    0.00092346   -0.00050828
     atom   11 type  2   force =    -0.00000000    0.00000000   -0.00110385

     Total force =     0.000611     Total SCF correction =     0.000001

     DFT-D3 dispersion Force =     0.003363


     Computing stress (Cartesian axis) and pressure

          total   stress  (Ry/bohr**3)                   (kbar)     P=       -0.03
  -0.00000018   0.00000000   0.00000000           -0.03        0.00        0.00
   0.00000000  -0.00000018   0.00000000            0.00       -0.03        0.00
   0.00000000   0.00000000  -0.00000025            0.00        0.00       -0.04

     kinetic stress (kbar)   6671.29      0.00      0.00
                                0.00   6671.29      0.00
                                0.00      0.00   6657.86

     local   stress (kbar)-204734.10      0.00     -0.00
                                0.00-204734.10      0.00
                               -0.00      0.00 201121.86

     nonloc. stress (kbar)   -532.05      0.00     -0.00
                                0.00   -532.05     -0.00
                               -0.00     -0.00   -525.51

     hartree stress (kbar) 102418.43      0.00      0.00
                                0.00 102418.43      0.00
                                0.00      0.00 -98552.61

     exc-cor stress (kbar)   -785.94      0.00      0.00
                                0.00   -785.94      0.00
                                0.00      0.00   -786.71

     corecor stress (kbar)      0.00      0.00      0.00
                                0.00      0.00      0.00
                                0.00      0.00      0.00

     ewald   stress (kbar)  96963.71     -0.00      0.00
                               -0.00  96963.71     -0.00
                                0.00     -0.00-107914.66

     hubbard stress (kbar)      0.00      0.00      0.00
                                0.00      0.00      0.00
                                0.00      0.00      0.00

     DFT-D   stress (kbar)     -1.36      0.00     -0.00
                                0.00     -1.36     -0.00
                               -0.00     -0.00     -0.25

     XDM     stress (kbar)      0.00      0.00      0.00
                                0.00      0.00      0.00
                                0.00      0.00      0.00

     dft-nl  stress (kbar)      0.00      0.00      0.00
                                0.00      0.00      0.00
                                0.00      0.00      0.00

     TS-vdW  stress (kbar)      0.00      0.00      0.00
                                0.00      0.00      0.00
                                0.00      0.00      0.00

     MDB     stress (kbar)      0.00      0.00      0.00
                                0.00      0.00      0.00
                                0.00      0.00      0.00

     3D-RISM stress (kbar)      0.00      0.00      0.00
                                0.00      0.00      0.00
                                0.00      0.00      0.00


     Writing all to output data dir ./out/Nb3I8.save/ :
     XML data file, charge density, pseudopotentials, collected wavefunctions

     init_run     :      1.92s CPU      2.09s WALL (       1 calls)
     electrons    :     52.43s CPU     74.64s WALL (       1 calls)
     forces       :      0.28s CPU      0.30s WALL (       1 calls)
     force_dftd3  :      0.01s CPU      0.02s WALL (       1 calls)
     stress       :      2.75s CPU      2.85s WALL (       1 calls)
     stres_dftd3  :      0.00s CPU      0.00s WALL (       1 calls)

     Called by init_run:
     wfcinit      :      0.43s CPU      0.48s WALL (       1 calls)
     wfcinit:wfcr :      0.38s CPU      0.41s WALL (       1 calls)
     potinit      :      0.09s CPU      0.11s WALL (       1 calls)
     hinit0       :      0.80s CPU      0.84s WALL (       1 calls)

     Called by electrons:
     c_bands      :     46.80s CPU     49.60s WALL (      18 calls)
     sum_band     :      3.19s CPU      3.58s WALL (      18 calls)
     v_of_rho     :      1.43s CPU      1.64s WALL (      18 calls)
     v_h          :      0.12s CPU      0.15s WALL (      18 calls)
     v_xc         :      1.31s CPU      1.50s WALL (      18 calls)
     mix_rho      :      0.54s CPU      0.57s WALL (      18 calls)
     energy_dftd3 :      0.00s CPU      0.00s WALL (       1 calls)

     Called by c_bands:
     init_us_2    :      0.83s CPU      0.86s WALL (      37 calls)
     cegterg      :     41.52s CPU     44.24s WALL (      18 calls)

     Called by sum_band:
     sum_band:wei :      0.04s CPU      0.04s WALL (      18 calls)
     sum_band:loo :      2.70s CPU      3.00s WALL (      18 calls)
     sum_band:buf :      0.00s CPU      0.00s WALL (      18 calls)
     sum_band:ini :      0.43s CPU      0.44s WALL (      18 calls)

     Called by *egterg:
     cdiaghg      :      3.82s CPU      3.87s WALL (     277 calls)
     cegterg:over :      4.76s CPU      4.83s WALL (     260 calls)
     cegterg:upda :      3.81s CPU      3.95s WALL (     260 calls)
     cegterg:last :      3.52s CPU      3.57s WALL (      50 calls)
     h_psi        :     23.01s CPU     25.36s WALL (     279 calls)
     g_psi        :      0.14s CPU      0.14s WALL (     260 calls)

     Called by h_psi:
     h_psi:calbec :      3.61s CPU      3.68s WALL (     279 calls)
     vloc_psi     :     15.92s CPU     17.98s WALL (     279 calls)
     add_vuspsi   :      3.12s CPU      3.17s WALL (     279 calls)

     General routines
     calbec       :      3.78s CPU      3.85s WALL (     284 calls)
     fft          :      1.25s CPU      1.45s WALL (     188 calls)
     ffts         :      0.05s CPU      0.06s WALL (      18 calls)
     fftw         :     16.30s CPU     18.49s WALL (   14766 calls)

     Parallel routines

     PWSCF        :     58.12s CPU    145.50s WALL


   This run was terminated on:  11:18:28   8May2025            

=------------------------------------------------------------------------------=
   JOB DONE.
=------------------------------------------------------------------------------=
