
     Program PHONON v.7.3.1 starts on 21May2025 at 17:13:27 

     This program is part of the open-source Quantum ESPRESSO suite
     for quantum simulation of materials; please cite
         "P. Giannozzi et al., J. Phys.:Condens. Matter 21 395502 (2009);
         "P. Giannozzi et al., J. Phys.:Condens. Matter 29 465901 (2017);
         "P. Giannozzi et al., J. Chem. Phys. 152 154105 (2020);
          URL http://www.quantum-espresso.org", 
     in publications or presentations arising from this work. More details at
     http://www.quantum-espresso.org/quote

     Parallel version (MPI & OpenMP), running on     384 processor cores
     Number of MPI processes:               384
     Threads/MPI process:                     1

     MPI processes distributed on     2 nodes
     345911 MiB available memory on the printing compute node when the environment starts

     Waiting for input...
     Reading input from standard input
     Run is not recoverable starting from scratch

     Reading xml data from directory:

     ./out/Nb3F8.save/

     K-points division:     npool     =      12
     R & G space division:  proc/nbgrp/npool/nimage =      32
     Subspace diagonalization in iterative solution of the eigenvalue problem:
     a serial algorithm will be used


     IMPORTANT: XC functional enforced from input :
     Exchange-correlation= PBE
                           (   1   4   3   4   0   0   0)
     Any further DFT definition will be discarded
     Please, verify this is what you really want


     Parallelization info
     --------------------
     sticks:   dense  smooth     PW     G-vecs:    dense   smooth      PW
     Min         107     107     28                 8355     8355    1162
     Max         108     108     29                 8364     8364    1171
     Sum        3427    3427    925               267435   267435   37405

     Using Slab Decomposition

     Reading collected, re-writing distributed wavefunctions in ./out/


     Dynamical matrices for ( 2, 2, 2)  uniform grid of q-points
     (   4 q-points):
       N         xq(1)         xq(2)         xq(3) 
       1   0.000000000   0.000000000   0.000000000
       2   0.000000000   0.000000000  -0.303645024
       3   0.288675135  -0.500000000   0.101215008
       4   0.288675135  -0.500000000  -0.202430016

     Number and degeneracy of irreps per q-point
       N         xq(1)         xq(2)         xq(3)   N irreps
       1   0.000000000   0.000000000   0.000000000      44
        1   1   1   1   1   1   1   1   1   1   1   2   2   2   2   2   2   2
   2   2   2   2   1   1   1   1   1   1   1   1   1   1   1   2   2   2
   2   2   2   2   2   2   2   2
       2   0.000000000   0.000000000  -0.303645024      44
        1   1   1   1   1   1   1   1   1   1   1   2   2   2   2   2   2   2
   2   2   2   2   1   1   1   1   1   1   1   1   1   1   1   2   2   2
   2   2   2   2   2   2   2   2
       3   0.288675135  -0.500000000   0.101215008      66
     No degeneracy
       4   0.288675135  -0.500000000  -0.202430016      66
     No degeneracy

     Saving dvscf to file. Distribute only q points, not irreducible representations.

     Calculation of q =    0.0000000   0.0000000   0.0000000

     Nb3F8                                                                      

     bravais-lattice index     =            0
     lattice parameter (alat)  =      11.1557  a.u.
     unit-cell volume          =    1979.8333 (a.u.)^3
     number of atoms/cell      =           22
     number of atomic types    =            2
     kinetic-energy cut-off    =     100.0000  Ry
     charge density cut-off    =     400.0000  Ry
     convergence threshold     =      1.0E-16
     beta                      =       0.7000
     number of iterations used =            4
     Exchange-correlation= PBE
                           (   1   4   3   4   0   0   0)


     celldm(1)=   11.15573  celldm(2)=    0.00000  celldm(3)=    0.00000
     celldm(4)=    0.00000  celldm(5)=    0.00000  celldm(6)=    0.00000

     crystal axes: (cart. coord. in units of alat)
               a(1) = (  0.8660  0.5000  0.0000 )  
               a(2) = ( -0.8660  0.5000  0.0000 )  
               a(3) = ( -0.5774  0.0000  1.6467 )  

     reciprocal axes: (cart. coord. in units 2 pi/alat)
               b(1) = (  0.5774  1.0000  0.2024 )  
               b(2) = ( -0.5774  1.0000 -0.2024 )  
               b(3) = (  0.0000 -0.0000  0.6073 )  


     Atoms inside the unit cell: 

     Cartesian axes

     site n.  atom      mass           positions (alat units)
        1  Nb     92.9064   tau(    1) = (    0.25220    0.00000   -0.41166  )
        2  Nb     92.9064   tau(    2) = (   -0.12610    0.21841   -0.41166  )
        3  Nb     92.9064   tau(    3) = (   -0.12610   -0.21841   -0.41166  )
        4  Nb     92.9064   tau(    4) = (   -0.25220   -0.00000    0.41166  )
        5  Nb     92.9064   tau(    5) = (    0.12610   -0.21841    0.41166  )
        6  Nb     92.9064   tau(    6) = (    0.12610    0.21841    0.41166  )
        7  F      18.9984   tau(    7) = (    0.00000    0.00000   -0.67560  )
        8  F      18.9984   tau(    8) = (    0.85697    0.00000   -0.59581  )
        9  F      18.9984   tau(    9) = (    0.43754    0.24216   -0.59581  )
       10  F      18.9984   tau(   10) = (    0.43754   -0.24216   -0.59581  )
       11  F      18.9984   tau(   11) = (    0.57735   -0.00000   -0.22131  )
       12  F      18.9984   tau(   12) = (   -0.28359    0.00000   -0.18697  )
       13  F      18.9984   tau(   13) = (    0.14179   -0.24560   -0.18697  )
       14  F      18.9984   tau(   14) = (    0.14179    0.24560   -0.18697  )
       15  F      18.9984   tau(   15) = (    0.28359   -0.00000    0.18697  )
       16  F      18.9984   tau(   16) = (   -0.14179    0.24560    0.18697  )
       17  F      18.9984   tau(   17) = (   -0.14179   -0.24560    0.18697  )
       18  F      18.9984   tau(   18) = (   -0.57735    0.00000    0.22131  )
       19  F      18.9984   tau(   19) = (   -0.85697   -0.00000    0.59581  )
       20  F      18.9984   tau(   20) = (   -0.43754   -0.24216    0.59581  )
       21  F      18.9984   tau(   21) = (   -0.43754    0.24216    0.59581  )
       22  F      18.9984   tau(   22) = (   -0.00000   -0.00000    0.67560  )

     Computing dynamical matrix for 
                    q = (   0.0000000   0.0000000   0.0000000 )

     13 Sym.Ops. (with q -> -q+G )


     G cutoff = 1260.9456  (   8359 G-vectors)     FFT grid: (180,180,180)

     number of k points=    32  Gaussian smearing, width (Ry)=  0.0037

     PseudoPot. # 1 for Nb read from file:
     ./pp/Nb_ONCV_PBE-1.2.upf
     MD5 check sum: 2c750ac0b6910ff4cf0ab5f6c4124a64
     Pseudo is Norm-conserving, Zval = 13.0
     Generated using ONCVPSP code by D. R. Hamann
     Using radial grid of  602 points,  6 beta functions with: 
                l(1) =   0
                l(2) =   0
                l(3) =   1
                l(4) =   1
                l(5) =   2
                l(6) =   2

     PseudoPot. # 2 for F  read from file:
     ./pp/F_ONCV_PBE-1.2.upf
     MD5 check sum: 1d8275f47d602dd53cad6bcdc0eda7dc
     Pseudo is Norm-conserving, Zval =  7.0
     Generated using ONCVPSP code by D. R. Hamann
     Using radial grid of  602 points,  4 beta functions with: 
                l(1) =   0
                l(2) =   0
                l(3) =   1
                l(4) =   1

     Mode symmetry, D_3d (-3m)  point group:


     Atomic displacements:
     There are   44 irreducible representations

     Representation     1      1 modes -  To be done

     Representation     2      1 modes -  To be done

     Representation     3      1 modes -  To be done

     Representation     4      1 modes -  To be done

     Representation     5      1 modes -  To be done

     Representation     6      1 modes -  To be done

     Representation     7      1 modes -  To be done

     Representation     8      1 modes -  To be done

     Representation     9      1 modes -  To be done

     Representation    10      1 modes -  To be done

     Representation    11      1 modes -  To be done

     Representation    12      2 modes -  To be done

     Representation    13      2 modes -  To be done

     Representation    14      2 modes -  To be done

     Representation    15      2 modes -  To be done

     Representation    16      2 modes -  To be done

     Representation    17      2 modes -  To be done

     Representation    18      2 modes -  To be done

     Representation    19      2 modes -  To be done

     Representation    20      2 modes -  To be done

     Representation    21      2 modes -  To be done

     Representation    22      2 modes -  To be done

     Representation    23      1 modes -  To be done

     Representation    24      1 modes -  To be done

     Representation    25      1 modes -  To be done

     Representation    26      1 modes -  To be done

     Representation    27      1 modes -  To be done

     Representation    28      1 modes -  To be done

     Representation    29      1 modes -  To be done

     Representation    30      1 modes -  To be done

     Representation    31      1 modes -  To be done

     Representation    32      1 modes -  To be done

     Representation    33      1 modes -  To be done

     Representation    34      2 modes -  To be done

     Representation    35      2 modes -  To be done

     Representation    36      2 modes -  To be done

     Representation    37      2 modes -  To be done

     Representation    38      2 modes -  To be done

     Representation    39      2 modes -  To be done

     Representation    40      2 modes -  To be done

     Representation    41      2 modes -  To be done

     Representation    42      2 modes -  To be done

     Representation    43      2 modes -  To be done

     Representation    44      2 modes -  To be done



     Alpha used in Ewald sum =   2.8000

     Reading Grimme-D3 Hessian from file: ./out/Nb3F8.hess

     Number of cells replicated along each semiaxis:   10  10   6
     Number of cells in the supercell:      5733
     Number of atoms in the supercell:    126126
     Hessian allocation dimension:  24972948

     Grimme-D3 Hessian read 

     Computing dynamical matrix for q:     0.000000    0.000000    0.000000

     Writing Hessian on file dynamical.false.dat

     Dynamical matrix computed
     PHONON       :     23.11s CPU     77.26s WALL



     Representation #   1 mode #   1

     Self-consistent Calculation

     Pert. #  1: Fermi energy shift (Ry) =    -4.1096E-01    -5.0487E-29

      iter #   1 total cpu time :   147.3 secs   av.it.:   7.9
      thresh= 1.000E-02 alpha_mix =  0.700 |ddv_scf|^2 =  1.900E-07

     Pert. #  1: Fermi energy shift (Ry) =     3.6931E-01     8.0779E-27

      iter #   2 total cpu time :   303.7 secs   av.it.:  17.5
      thresh= 4.359E-05 alpha_mix =  0.700 |ddv_scf|^2 =  2.150E-07

     Pert. #  1: Fermi energy shift (Ry) =    -1.0237E-01    -3.6351E-27

      iter #   3 total cpu time :   363.0 secs   av.it.:  16.8
      thresh= 4.637E-05 alpha_mix =  0.700 |ddv_scf|^2 =  1.021E-08

     Pert. #  1: Fermi energy shift (Ry) =    -7.5033E-02    -1.2326E-31

      iter #   4 total cpu time :   433.7 secs   av.it.:  16.2
      thresh= 1.010E-05 alpha_mix =  0.700 |ddv_scf|^2 =  2.571E-10

     Pert. #  1: Fermi energy shift (Ry) =    -6.0884E-02    -9.4663E-30

      iter #   5 total cpu time :   487.5 secs   av.it.:  17.2
      thresh= 1.603E-06 alpha_mix =  0.700 |ddv_scf|^2 =  1.432E-11

     Pert. #  1: Fermi energy shift (Ry) =    -6.3361E-02    -1.1044E-29

      iter #   6 total cpu time :   540.4 secs   av.it.:  17.4
      thresh= 3.784E-07 alpha_mix =  0.700 |ddv_scf|^2 =  5.076E-13

     Pert. #  1: Fermi energy shift (Ry) =    -6.3021E-02    -1.1044E-29

      iter #   7 total cpu time :   592.1 secs   av.it.:  17.9
      thresh= 7.124E-08 alpha_mix =  0.700 |ddv_scf|^2 =  2.388E-13

     Pert. #  1: Fermi energy shift (Ry) =    -6.3462E-02    -1.1044E-29

      iter #   8 total cpu time :   645.4 secs   av.it.:  17.2
      thresh= 4.887E-08 alpha_mix =  0.700 |ddv_scf|^2 =  2.080E-14

     Pert. #  1: Fermi energy shift (Ry) =    -6.3499E-02    -1.1044E-29

      iter #   9 total cpu time :   696.1 secs   av.it.:  17.5
      thresh= 1.442E-08 alpha_mix =  0.700 |ddv_scf|^2 =  3.641E-15

     Pert. #  1: Fermi energy shift (Ry) =    -6.3483E-02    -1.1044E-29

      iter #  10 total cpu time :   754.3 secs   av.it.:  17.3
      thresh= 6.034E-09 alpha_mix =  0.700 |ddv_scf|^2 =  3.040E-16

     Pert. #  1: Fermi energy shift (Ry) =    -6.3485E-02    -1.1044E-29

      iter #  11 total cpu time :   821.1 secs   av.it.:  17.7
      thresh= 1.744E-09 alpha_mix =  0.700 |ddv_scf|^2 =  3.972E-16

     Pert. #  1: Fermi energy shift (Ry) =    -6.3482E-02    -1.1044E-29

      iter #  12 total cpu time :   872.1 secs   av.it.:  16.5
      thresh= 1.993E-09 alpha_mix =  0.700 |ddv_scf|^2 =  1.133E-17

     End of self-consistent calculation

     Convergence has been achieved 


     Representation #   2 mode #   2

     Self-consistent Calculation

     Pert. #  1: Fermi energy shift (Ry) =    -7.0027E-02     1.0097E-28

      iter #   1 total cpu time :   977.0 secs   av.it.:   7.0
      thresh= 1.000E-02 alpha_mix =  0.700 |ddv_scf|^2 =  5.050E-08

     Pert. #  1: Fermi energy shift (Ry) =     3.2354E-02     5.0487E-29

      iter #   2 total cpu time :  1039.1 secs   av.it.:  17.4
      thresh= 2.247E-05 alpha_mix =  0.700 |ddv_scf|^2 =  3.219E-08

     Pert. #  1: Fermi energy shift (Ry) =     1.3516E-02    -7.8886E-30

      iter #   3 total cpu time :  1101.9 secs   av.it.:  16.4
      thresh= 1.794E-05 alpha_mix =  0.700 |ddv_scf|^2 =  1.430E-08

     Pert. #  1: Fermi energy shift (Ry) =     1.6087E-03     3.1554E-30

      iter #   4 total cpu time :  1162.7 secs   av.it.:  15.6
      thresh= 1.196E-05 alpha_mix =  0.700 |ddv_scf|^2 =  2.145E-10

     Pert. #  1: Fermi energy shift (Ry) =     4.6993E-03     3.1554E-30

      iter #   5 total cpu time :  1225.0 secs   av.it.:  16.9
      thresh= 1.465E-06 alpha_mix =  0.700 |ddv_scf|^2 =  1.344E-11

     Pert. #  1: Fermi energy shift (Ry) =     2.2650E-03     1.9722E-30

      iter #   6 total cpu time :  1277.1 secs   av.it.:  17.4
      thresh= 3.666E-07 alpha_mix =  0.700 |ddv_scf|^2 =  1.459E-12

     Pert. #  1: Fermi energy shift (Ry) =     3.9314E-03    -1.2622E-29

      iter #   7 total cpu time :  1326.5 secs   av.it.:  17.4
      thresh= 1.208E-07 alpha_mix =  0.700 |ddv_scf|^2 =  8.753E-14

     Pert. #  1: Fermi energy shift (Ry) =     3.2998E-03     7.8886E-30

      iter #   8 total cpu time :  1390.9 secs   av.it.:  17.4
      thresh= 2.959E-08 alpha_mix =  0.700 |ddv_scf|^2 =  3.064E-14

     Pert. #  1: Fermi energy shift (Ry) =     3.5450E-03     6.3109E-30

      iter #   9 total cpu time :  1439.2 secs   av.it.:  17.6
      thresh= 1.751E-08 alpha_mix =  0.700 |ddv_scf|^2 =  7.085E-15

     Pert. #  1: Fermi energy shift (Ry) =     3.4797E-03     3.1554E-30

      iter #  10 total cpu time :  1483.4 secs   av.it.:  17.4
      thresh= 8.417E-09 alpha_mix =  0.700 |ddv_scf|^2 =  3.149E-15

     Pert. #  1: Fermi energy shift (Ry) =     3.4694E-03     3.1554E-30

      iter #  11 total cpu time :  1531.0 secs   av.it.:  16.8
      thresh= 5.611E-09 alpha_mix =  0.700 |ddv_scf|^2 =  5.109E-16

     Pert. #  1: Fermi energy shift (Ry) =     3.4857E-03     3.1554E-30

      iter #  12 total cpu time :  1580.5 secs   av.it.:  17.4
      thresh= 2.260E-09 alpha_mix =  0.700 |ddv_scf|^2 =  7.553E-17

     End of self-consistent calculation

     Convergence has been achieved 


     Representation #   3 mode #   3

     Self-consistent Calculation

     Pert. #  1: Fermi energy shift (Ry) =     1.9723E-01     1.5777E-30

      iter #   1 total cpu time :  1689.3 secs   av.it.:   6.9
      thresh= 1.000E-02 alpha_mix =  0.700 |ddv_scf|^2 =  5.702E-08

     Pert. #  1: Fermi energy shift (Ry) =    -2.5001E-01    -8.0779E-28

      iter #   2 total cpu time :  1755.4 secs   av.it.:  17.4
      thresh= 2.388E-05 alpha_mix =  0.700 |ddv_scf|^2 =  9.311E-08

     Pert. #  1: Fermi energy shift (Ry) =    -2.5499E-02     5.0487E-29

      iter #   3 total cpu time :  1817.7 secs   av.it.:  16.2
      thresh= 3.051E-05 alpha_mix =  0.700 |ddv_scf|^2 =  8.687E-09

     Pert. #  1: Fermi energy shift (Ry) =     5.7321E-03     1.2622E-29

      iter #   4 total cpu time :  1874.2 secs   av.it.:  16.1
      thresh= 9.320E-06 alpha_mix =  0.700 |ddv_scf|^2 =  3.822E-10

     Pert. #  1: Fermi energy shift (Ry) =    -2.2848E-02     1.0097E-28

      iter #   5 total cpu time :  1934.6 secs   av.it.:  17.4
      thresh= 1.955E-06 alpha_mix =  0.700 |ddv_scf|^2 =  3.018E-11

     Pert. #  1: Fermi energy shift (Ry) =    -1.7657E-02     6.3109E-30

      iter #   6 total cpu time :  1995.7 secs   av.it.:  17.4
      thresh= 5.494E-07 alpha_mix =  0.700 |ddv_scf|^2 =  2.878E-12

     Pert. #  1: Fermi energy shift (Ry) =    -1.7794E-02     6.3109E-30

      iter #   7 total cpu time :  2041.9 secs   av.it.:  16.4
      thresh= 1.696E-07 alpha_mix =  0.700 |ddv_scf|^2 =  5.029E-14

     Pert. #  1: Fermi energy shift (Ry) =    -1.7650E-02     6.3109E-30

      iter #   8 total cpu time :  2094.7 secs   av.it.:  17.9
      thresh= 2.242E-08 alpha_mix =  0.700 |ddv_scf|^2 =  3.682E-14

     Pert. #  1: Fermi energy shift (Ry) =    -1.7624E-02     6.3109E-30

      iter #   9 total cpu time :  2152.8 secs   av.it.:  17.3
      thresh= 1.919E-08 alpha_mix =  0.700 |ddv_scf|^2 =  3.669E-15

     Pert. #  1: Fermi energy shift (Ry) =    -1.7603E-02     6.3109E-30

      iter #  10 total cpu time :  2205.3 secs   av.it.:  16.9
      thresh= 6.057E-09 alpha_mix =  0.700 |ddv_scf|^2 =  2.448E-16

     Pert. #  1: Fermi energy shift (Ry) =    -1.7600E-02     6.3109E-30

      iter #  11 total cpu time :  2255.1 secs   av.it.:  17.6
      thresh= 1.565E-09 alpha_mix =  0.700 |ddv_scf|^2 =  1.105E-16

     Pert. #  1: Fermi energy shift (Ry) =    -1.7609E-02     6.3109E-30

      iter #  12 total cpu time :  2303.9 secs   av.it.:  17.5
      thresh= 1.051E-09 alpha_mix =  0.700 |ddv_scf|^2 =  5.236E-17

     End of self-consistent calculation

     Convergence has been achieved 


     Representation #   4 mode #   4

     Self-consistent Calculation

     Pert. #  1: Fermi energy shift (Ry) =     2.9844E-01     5.0487E-29

      iter #   1 total cpu time :  2455.9 secs   av.it.:   7.0
      thresh= 1.000E-02 alpha_mix =  0.700 |ddv_scf|^2 =  1.506E-07

     Pert. #  1: Fermi energy shift (Ry) =    -3.3471E-01    -2.0195E-28

      iter #   2 total cpu time :  2520.7 secs   av.it.:  17.4
      thresh= 3.881E-05 alpha_mix =  0.700 |ddv_scf|^2 =  3.526E-07

     Pert. #  1: Fermi energy shift (Ry) =    -1.2525E-01     5.0487E-29

      iter #   3 total cpu time :  2583.5 secs   av.it.:  15.8
      thresh= 5.938E-05 alpha_mix =  0.700 |ddv_scf|^2 =  1.726E-08

     Pert. #  1: Fermi energy shift (Ry) =    -2.3670E-02     1.0097E-28

      iter #   4 total cpu time :  2640.4 secs   av.it.:  15.9
      thresh= 1.314E-05 alpha_mix =  0.700 |ddv_scf|^2 =  5.335E-10

     Pert. #  1: Fermi energy shift (Ry) =    -5.4873E-02     5.0487E-29

      iter #   5 total cpu time :  2715.2 secs   av.it.:  17.4
      thresh= 2.310E-06 alpha_mix =  0.700 |ddv_scf|^2 =  5.453E-11

     Pert. #  1: Fermi energy shift (Ry) =    -5.0594E-02     5.0487E-29

      iter #   6 total cpu time :  2768.6 secs   av.it.:  16.9
      thresh= 7.385E-07 alpha_mix =  0.700 |ddv_scf|^2 =  3.976E-12

     Pert. #  1: Fermi energy shift (Ry) =    -5.0678E-02     5.0487E-29

      iter #   7 total cpu time :  2816.5 secs   av.it.:  16.2
      thresh= 1.994E-07 alpha_mix =  0.700 |ddv_scf|^2 =  9.012E-14

     Pert. #  1: Fermi energy shift (Ry) =    -5.0547E-02     5.0487E-29

      iter #   8 total cpu time :  2870.7 secs   av.it.:  17.7
      thresh= 3.002E-08 alpha_mix =  0.700 |ddv_scf|^2 =  4.525E-14

     Pert. #  1: Fermi energy shift (Ry) =    -5.0454E-02     5.0487E-29

      iter #   9 total cpu time :  2933.2 secs   av.it.:  17.4
      thresh= 2.127E-08 alpha_mix =  0.700 |ddv_scf|^2 =  6.624E-15

     Pert. #  1: Fermi energy shift (Ry) =    -5.0462E-02     5.0487E-29

      iter #  10 total cpu time :  2983.7 secs   av.it.:  16.7
      thresh= 8.139E-09 alpha_mix =  0.700 |ddv_scf|^2 =  4.334E-16

     Pert. #  1: Fermi energy shift (Ry) =    -5.0442E-02     5.0487E-29

      iter #  11 total cpu time :  3041.2 secs   av.it.:  17.5
      thresh= 2.082E-09 alpha_mix =  0.700 |ddv_scf|^2 =  1.472E-16

     Pert. #  1: Fermi energy shift (Ry) =    -5.0456E-02     5.0487E-29

      iter #  12 total cpu time :  3093.8 secs   av.it.:  17.4
      thresh= 1.213E-09 alpha_mix =  0.700 |ddv_scf|^2 =  2.492E-17

     End of self-consistent calculation

     Convergence has been achieved 


     Representation #   5 mode #   5

     Self-consistent Calculation

     Pert. #  1: Fermi energy shift (Ry) =    -3.8760E-03     0.0000E+00

      iter #   1 total cpu time :  3161.1 secs   av.it.:   8.3
      thresh= 1.000E-02 alpha_mix =  0.700 |ddv_scf|^2 =  1.415E-06

     Pert. #  1: Fermi energy shift (Ry) =    -1.8924E-01     0.0000E+00

      iter #   2 total cpu time :  3220.7 secs   av.it.:  16.8
      thresh= 1.189E-04 alpha_mix =  0.700 |ddv_scf|^2 =  5.590E-06

     Pert. #  1: Fermi energy shift (Ry) =    -7.5966E-03     0.0000E+00

      iter #   3 total cpu time :  3290.3 secs   av.it.:  15.1
      thresh= 2.364E-04 alpha_mix =  0.700 |ddv_scf|^2 =  1.048E-08

     Pert. #  1: Fermi energy shift (Ry) =    -2.7978E-02     0.0000E+00

      iter #   4 total cpu time :  3348.2 secs   av.it.:  17.0
      thresh= 1.024E-05 alpha_mix =  0.700 |ddv_scf|^2 =  1.431E-09

     Pert. #  1: Fermi energy shift (Ry) =    -2.9501E-02     0.0000E+00

      iter #   5 total cpu time :  3436.2 secs   av.it.:  15.6
      thresh= 3.783E-06 alpha_mix =  0.700 |ddv_scf|^2 =  2.006E-11

     Pert. #  1: Fermi energy shift (Ry) =    -2.6362E-02     0.0000E+00

      iter #   6 total cpu time :  3485.3 secs   av.it.:  17.0
      thresh= 4.479E-07 alpha_mix =  0.700 |ddv_scf|^2 =  1.392E-12

     Pert. #  1: Fermi energy shift (Ry) =    -2.6938E-02     0.0000E+00

      iter #   7 total cpu time :  3537.7 secs   av.it.:  16.8
      thresh= 1.180E-07 alpha_mix =  0.700 |ddv_scf|^2 =  1.798E-13

     Pert. #  1: Fermi energy shift (Ry) =    -2.6494E-02     0.0000E+00

      iter #   8 total cpu time :  3585.7 secs   av.it.:  17.4
      thresh= 4.240E-08 alpha_mix =  0.700 |ddv_scf|^2 =  3.797E-14

     Pert. #  1: Fermi energy shift (Ry) =    -2.6753E-02     0.0000E+00

      iter #   9 total cpu time :  3635.0 secs   av.it.:  17.4
      thresh= 1.949E-08 alpha_mix =  0.700 |ddv_scf|^2 =  4.301E-15

     Pert. #  1: Fermi energy shift (Ry) =    -2.6703E-02     0.0000E+00

      iter #  10 total cpu time :  3687.6 secs   av.it.:  17.8
      thresh= 6.558E-09 alpha_mix =  0.700 |ddv_scf|^2 =  3.455E-15

     Pert. #  1: Fermi energy shift (Ry) =    -2.6699E-02     0.0000E+00

      iter #  11 total cpu time :  3734.8 secs   av.it.:  16.8
      thresh= 5.878E-09 alpha_mix =  0.700 |ddv_scf|^2 =  1.642E-16

     Pert. #  1: Fermi energy shift (Ry) =    -2.6708E-02     0.0000E+00

      iter #  12 total cpu time :  3781.3 secs   av.it.:  17.4
      thresh= 1.281E-09 alpha_mix =  0.700 |ddv_scf|^2 =  2.315E-17

     End of self-consistent calculation

     Convergence has been achieved 


     Representation #   6 mode #   6

     Self-consistent Calculation

     Pert. #  1: Fermi energy shift (Ry) =    -2.4489E-01    -2.0195E-28

      iter #   1 total cpu time :  3871.6 secs   av.it.:   7.0
      thresh= 1.000E-02 alpha_mix =  0.700 |ddv_scf|^2 =  2.419E-07

     Pert. #  1: Fermi energy shift (Ry) =     2.3732E-01    -5.0487E-28

      iter #   2 total cpu time :  3942.5 secs   av.it.:  17.1
      thresh= 4.918E-05 alpha_mix =  0.700 |ddv_scf|^2 =  6.522E-07

     Pert. #  1: Fermi energy shift (Ry) =     4.6532E-02    -6.3109E-29

      iter #   3 total cpu time :  4004.7 secs   av.it.:  15.4
      thresh= 8.076E-05 alpha_mix =  0.700 |ddv_scf|^2 =  1.629E-08

     Pert. #  1: Fermi energy shift (Ry) =     6.6088E-03    -7.5731E-29

      iter #   4 total cpu time :  4067.7 secs   av.it.:  16.2
      thresh= 1.276E-05 alpha_mix =  0.700 |ddv_scf|^2 =  4.214E-10

     Pert. #  1: Fermi energy shift (Ry) =     2.6502E-02    -1.2622E-28

      iter #   5 total cpu time :  4125.1 secs   av.it.:  17.4
      thresh= 2.053E-06 alpha_mix =  0.700 |ddv_scf|^2 =  8.326E-11

     Pert. #  1: Fermi energy shift (Ry) =     1.8987E-02    -1.0097E-28

      iter #   6 total cpu time :  4184.0 secs   av.it.:  16.5
      thresh= 9.125E-07 alpha_mix =  0.700 |ddv_scf|^2 =  1.158E-12

     Pert. #  1: Fermi energy shift (Ry) =     1.9644E-02    -7.5731E-29

      iter #   7 total cpu time :  4234.0 secs   av.it.:  17.4
      thresh= 1.076E-07 alpha_mix =  0.700 |ddv_scf|^2 =  6.433E-14

     Pert. #  1: Fermi energy shift (Ry) =     1.9264E-02    -1.0097E-28

      iter #   8 total cpu time :  4283.2 secs   av.it.:  17.9
      thresh= 2.536E-08 alpha_mix =  0.700 |ddv_scf|^2 =  3.308E-14

     Pert. #  1: Fermi energy shift (Ry) =     1.9401E-02    -7.5731E-29

      iter #   9 total cpu time :  4330.8 secs   av.it.:  17.4
      thresh= 1.819E-08 alpha_mix =  0.700 |ddv_scf|^2 =  3.371E-15

     Pert. #  1: Fermi energy shift (Ry) =     1.9347E-02    -7.5731E-29

      iter #  10 total cpu time :  4384.4 secs   av.it.:  17.6
      thresh= 5.806E-09 alpha_mix =  0.700 |ddv_scf|^2 =  4.207E-16

     Pert. #  1: Fermi energy shift (Ry) =     1.9358E-02    -7.5731E-29

      iter #  11 total cpu time :  4468.8 secs   av.it.:  17.3
      thresh= 2.051E-09 alpha_mix =  0.700 |ddv_scf|^2 =  7.219E-17

     End of self-consistent calculation

     Convergence has been achieved 


     Representation #   7 mode #   7

     Self-consistent Calculation

     Pert. #  1: Fermi energy shift (Ry) =    -1.0224E-01     5.0487E-29

      iter #   1 total cpu time :  4544.8 secs   av.it.:   7.0
      thresh= 1.000E-02 alpha_mix =  0.700 |ddv_scf|^2 =  8.968E-08

     Pert. #  1: Fermi energy shift (Ry) =     6.8397E-02    -3.0292E-28

      iter #   2 total cpu time :  4596.9 secs   av.it.:  17.2
      thresh= 2.995E-05 alpha_mix =  0.700 |ddv_scf|^2 =  2.244E-07

     Pert. #  1: Fermi energy shift (Ry) =     3.9501E-02     8.8352E-29

      iter #   3 total cpu time :  4655.1 secs   av.it.:  15.4
      thresh= 4.737E-05 alpha_mix =  0.700 |ddv_scf|^2 =  8.178E-09

     Pert. #  1: Fermi energy shift (Ry) =    -2.4203E-03     8.8352E-29

      iter #   4 total cpu time :  4710.2 secs   av.it.:  16.2
      thresh= 9.043E-06 alpha_mix =  0.700 |ddv_scf|^2 =  1.969E-10

     Pert. #  1: Fermi energy shift (Ry) =     1.2717E-02     1.0097E-28

      iter #   5 total cpu time :  4768.4 secs   av.it.:  17.4
      thresh= 1.403E-06 alpha_mix =  0.700 |ddv_scf|^2 =  4.087E-11

     Pert. #  1: Fermi energy shift (Ry) =     8.4426E-03     8.8352E-29

      iter #   6 total cpu time :  4816.3 secs   av.it.:  16.8
      thresh= 6.393E-07 alpha_mix =  0.700 |ddv_scf|^2 =  1.344E-12

     Pert. #  1: Fermi energy shift (Ry) =     9.3952E-03     7.5731E-29

      iter #   7 total cpu time :  4882.6 secs   av.it.:  16.5
      thresh= 1.159E-07 alpha_mix =  0.700 |ddv_scf|^2 =  4.307E-14

     Pert. #  1: Fermi energy shift (Ry) =     9.0862E-03     1.0097E-28

      iter #   8 total cpu time :  4929.4 secs   av.it.:  17.8
      thresh= 2.075E-08 alpha_mix =  0.700 |ddv_scf|^2 =  1.496E-14

     Pert. #  1: Fermi energy shift (Ry) =     9.2088E-03     8.8352E-29

      iter #   9 total cpu time :  4980.1 secs   av.it.:  17.8
      thresh= 1.223E-08 alpha_mix =  0.700 |ddv_scf|^2 =  3.922E-15

     Pert. #  1: Fermi energy shift (Ry) =     9.1766E-03     8.8352E-29

      iter #  10 total cpu time :  5027.1 secs   av.it.:  17.4
      thresh= 6.263E-09 alpha_mix =  0.700 |ddv_scf|^2 =  2.297E-16

     Pert. #  1: Fermi energy shift (Ry) =     9.1850E-03     8.8352E-29

      iter #  11 total cpu time :  5074.0 secs   av.it.:  17.5
      thresh= 1.516E-09 alpha_mix =  0.700 |ddv_scf|^2 =  1.656E-17

     End of self-consistent calculation

     Convergence has been achieved 


     Representation #   8 mode #   8

     Self-consistent Calculation

     Pert. #  1: Fermi energy shift (Ry) =     6.4380E-02     2.0195E-28

      iter #   1 total cpu time :  5171.5 secs   av.it.:   7.0
      thresh= 1.000E-02 alpha_mix =  0.700 |ddv_scf|^2 =  1.139E-07

     Pert. #  1: Fermi energy shift (Ry) =    -8.5181E-02     3.7865E-29

      iter #   2 total cpu time :  5249.0 secs   av.it.:  17.3
      thresh= 3.376E-05 alpha_mix =  0.700 |ddv_scf|^2 =  2.612E-07

     Pert. #  1: Fermi energy shift (Ry) =     5.5717E-03     5.0487E-29

      iter #   3 total cpu time :  5317.8 secs   av.it.:  15.4
      thresh= 5.111E-05 alpha_mix =  0.700 |ddv_scf|^2 =  1.108E-08

     Pert. #  1: Fermi energy shift (Ry) =     1.2317E-02     7.5731E-29

      iter #   4 total cpu time :  5377.6 secs   av.it.:  15.9
      thresh= 1.053E-05 alpha_mix =  0.700 |ddv_scf|^2 =  4.172E-10

     Pert. #  1: Fermi energy shift (Ry) =     4.8719E-04     5.0487E-29

      iter #   5 total cpu time :  5433.2 secs   av.it.:  16.5
      thresh= 2.043E-06 alpha_mix =  0.700 |ddv_scf|^2 =  1.630E-11

     Pert. #  1: Fermi energy shift (Ry) =     4.8575E-03     7.5731E-29

      iter #   6 total cpu time :  5484.1 secs   av.it.:  17.4
      thresh= 4.037E-07 alpha_mix =  0.700 |ddv_scf|^2 =  2.056E-12

     Pert. #  1: Fermi energy shift (Ry) =     4.0451E-03     7.5731E-29

      iter #   7 total cpu time :  5529.9 secs   av.it.:  17.4
      thresh= 1.434E-07 alpha_mix =  0.700 |ddv_scf|^2 =  6.151E-14

     Pert. #  1: Fermi energy shift (Ry) =     4.2881E-03     7.5731E-29

      iter #   8 total cpu time :  5587.9 secs   av.it.:  17.5
      thresh= 2.480E-08 alpha_mix =  0.700 |ddv_scf|^2 =  3.219E-14

     Pert. #  1: Fermi energy shift (Ry) =     4.1462E-03     7.5731E-29

      iter #   9 total cpu time :  5645.2 secs   av.it.:  17.3
      thresh= 1.794E-08 alpha_mix =  0.700 |ddv_scf|^2 =  5.742E-15

     Pert. #  1: Fermi energy shift (Ry) =     4.2126E-03     7.5731E-29

      iter #  10 total cpu time :  5698.6 secs   av.it.:  17.4
      thresh= 7.577E-09 alpha_mix =  0.700 |ddv_scf|^2 =  2.915E-15

     Pert. #  1: Fermi energy shift (Ry) =     4.2068E-03     7.5731E-29

      iter #  11 total cpu time :  5745.5 secs   av.it.:  16.4
      thresh= 5.399E-09 alpha_mix =  0.700 |ddv_scf|^2 =  9.880E-17

     End of self-consistent calculation

     Convergence has been achieved 


     Representation #   9 mode #   9

     Self-consistent Calculation

     Pert. #  1: Fermi energy shift (Ry) =     3.5293E-23     9.1230E-49

      iter #   1 total cpu time :  5845.8 secs   av.it.:   7.0
      thresh= 1.000E-02 alpha_mix =  0.700 |ddv_scf|^2 =  9.727E-09

     Pert. #  1: Fermi energy shift (Ry) =     0.0000E+00    -9.3420E-46

      iter #   2 total cpu time :  5914.4 secs   av.it.:  17.0
      thresh= 9.862E-06 alpha_mix =  0.700 |ddv_scf|^2 =  1.730E-10

     Pert. #  1: Fermi energy shift (Ry) =     0.0000E+00    -9.3420E-46

      iter #   3 total cpu time :  5981.9 secs   av.it.:  17.3
      thresh= 1.315E-06 alpha_mix =  0.700 |ddv_scf|^2 =  5.195E-12

     Pert. #  1: Fermi energy shift (Ry) =     8.8233E-24    -2.3355E-46

      iter #   4 total cpu time :  6042.2 secs   av.it.:  16.7
      thresh= 2.279E-07 alpha_mix =  0.700 |ddv_scf|^2 =  9.994E-14

     Pert. #  1: Fermi energy shift (Ry) =     8.8233E-24    -2.3355E-46

      iter #   5 total cpu time :  6100.3 secs   av.it.:  16.2
      thresh= 3.161E-08 alpha_mix =  0.700 |ddv_scf|^2 =  1.102E-15

     Pert. #  1: Fermi energy shift (Ry) =     8.8233E-24    -2.3355E-46

      iter #   6 total cpu time :  6153.7 secs   av.it.:  16.2
      thresh= 3.319E-09 alpha_mix =  0.700 |ddv_scf|^2 =  2.342E-17

     End of self-consistent calculation

     Convergence has been achieved 


     Representation #  10 mode #  10

     Self-consistent Calculation

     Pert. #  1: Fermi energy shift (Ry) =    -7.0586E-23    -2.8026E-45

      iter #   1 total cpu time :  6240.5 secs   av.it.:   6.8
      thresh= 1.000E-02 alpha_mix =  0.700 |ddv_scf|^2 =  8.874E-09

     Pert. #  1: Fermi energy shift (Ry) =     5.2940E-23    -2.8026E-45

      iter #   2 total cpu time :  6291.2 secs   av.it.:  17.1
      thresh= 9.420E-06 alpha_mix =  0.700 |ddv_scf|^2 =  1.204E-10

     Pert. #  1: Fermi energy shift (Ry) =    -1.7647E-23    -1.4013E-45

      iter #   3 total cpu time :  6366.6 secs   av.it.:  17.1
      thresh= 1.097E-06 alpha_mix =  0.700 |ddv_scf|^2 =  4.335E-12

     Pert. #  1: Fermi energy shift (Ry) =    -2.6470E-23    -2.8026E-45

      iter #   4 total cpu time :  6431.4 secs   av.it.:  16.8
      thresh= 2.082E-07 alpha_mix =  0.700 |ddv_scf|^2 =  1.134E-13

     Pert. #  1: Fermi energy shift (Ry) =    -2.6470E-23    -2.8026E-45

      iter #   5 total cpu time :  6489.1 secs   av.it.:  16.2
      thresh= 3.367E-08 alpha_mix =  0.700 |ddv_scf|^2 =  1.317E-15

     Pert. #  1: Fermi energy shift (Ry) =    -2.6470E-23    -2.8026E-45

      iter #   6 total cpu time :  6536.0 secs   av.it.:  16.2
      thresh= 3.629E-09 alpha_mix =  0.700 |ddv_scf|^2 =  3.137E-17

     End of self-consistent calculation

     Convergence has been achieved 


     Representation #  11 mode #  11

     Self-consistent Calculation

     Pert. #  1: Fermi energy shift (Ry) =     0.0000E+00    -2.9894E-44

      iter #   1 total cpu time :  6643.6 secs   av.it.:   7.0
      thresh= 1.000E-02 alpha_mix =  0.700 |ddv_scf|^2 =  1.413E-08

     Pert. #  1: Fermi energy shift (Ry) =     0.0000E+00    -2.9894E-44

      iter #   2 total cpu time :  6720.6 secs   av.it.:  17.0
      thresh= 1.189E-05 alpha_mix =  0.700 |ddv_scf|^2 =  1.073E-09

     Pert. #  1: Fermi energy shift (Ry) =     0.0000E+00    -2.9894E-44

      iter #   3 total cpu time :  6781.2 secs   av.it.:  16.8
      thresh= 3.276E-06 alpha_mix =  0.700 |ddv_scf|^2 =  2.818E-12

     Pert. #  1: Fermi energy shift (Ry) =     2.8234E-22    -2.9894E-44

      iter #   4 total cpu time :  6841.4 secs   av.it.:  16.6
      thresh= 1.679E-07 alpha_mix =  0.700 |ddv_scf|^2 =  3.637E-14

     Pert. #  1: Fermi energy shift (Ry) =     2.8234E-22    -2.9894E-44

      iter #   5 total cpu time :  6905.7 secs   av.it.:  16.5
      thresh= 1.907E-08 alpha_mix =  0.700 |ddv_scf|^2 =  1.248E-15

     Pert. #  1: Fermi energy shift (Ry) =     0.0000E+00    -2.9894E-44

      iter #   6 total cpu time :  6958.4 secs   av.it.:  16.9
      thresh= 3.533E-09 alpha_mix =  0.700 |ddv_scf|^2 =  1.194E-17

     End of self-consistent calculation

     Convergence has been achieved 


     Representation #  12 modes #  12  13

     Self-consistent Calculation

     Pert. #  1: Fermi energy shift (Ry) =    -1.2649E-19    -5.9789E-44
     Pert. #  2: Fermi energy shift (Ry) =    -1.0842E-19     1.1210E-44

      iter #   1 total cpu time :  7099.7 secs   av.it.:   7.0
      thresh= 1.000E-02 alpha_mix =  0.700 |ddv_scf|^2 =  4.615E-09

     Pert. #  1: Fermi energy shift (Ry) =     0.0000E+00     1.3079E-44
     Pert. #  2: Fermi energy shift (Ry) =     1.8793E-18     5.6052E-44

      iter #   2 total cpu time :  7201.9 secs   av.it.:  19.5
      thresh= 6.794E-06 alpha_mix =  0.700 |ddv_scf|^2 =  7.875E-09

     Pert. #  1: Fermi energy shift (Ry) =     1.4456E-19    -2.6905E-43
     Pert. #  2: Fermi energy shift (Ry) =     7.9508E-19    -2.3915E-43

      iter #   3 total cpu time :  7314.9 secs   av.it.:  18.2
      thresh= 8.874E-06 alpha_mix =  0.700 |ddv_scf|^2 =  1.496E-08

     Pert. #  1: Fermi energy shift (Ry) =    -1.0842E-19     1.6442E-43
     Pert. #  2: Fermi energy shift (Ry) =     1.8974E-19     4.4842E-44

      iter #   4 total cpu time :  7412.4 secs   av.it.:  16.9
      thresh= 1.223E-05 alpha_mix =  0.700 |ddv_scf|^2 =  5.698E-11

     Pert. #  1: Fermi energy shift (Ry) =    -2.1458E-20    -2.9894E-44
     Pert. #  2: Fermi energy shift (Ry) =    -1.7505E-20     2.9894E-44

      iter #   5 total cpu time :  7510.6 secs   av.it.:  19.1
      thresh= 7.549E-07 alpha_mix =  0.700 |ddv_scf|^2 =  8.616E-12

     Pert. #  1: Fermi energy shift (Ry) =    -2.2588E-21    -1.1210E-44
     Pert. #  2: Fermi energy shift (Ry) =     1.3553E-20     2.9894E-44

      iter #   6 total cpu time :  7603.6 secs   av.it.:  18.7
      thresh= 2.935E-07 alpha_mix =  0.700 |ddv_scf|^2 =  1.844E-13

     Pert. #  1: Fermi energy shift (Ry) =    -6.7763E-21     1.1210E-44
     Pert. #  2: Fermi energy shift (Ry) =     1.0164E-20     2.9894E-44

      iter #   7 total cpu time :  7697.1 secs   av.it.:  18.0
      thresh= 4.295E-08 alpha_mix =  0.700 |ddv_scf|^2 =  1.499E-14

     Pert. #  1: Fermi energy shift (Ry) =    -9.0350E-21    -3.7368E-45
     Pert. #  2: Fermi energy shift (Ry) =     2.4846E-20     3.7368E-44

      iter #   8 total cpu time :  7787.7 secs   av.it.:  17.9
      thresh= 1.224E-08 alpha_mix =  0.700 |ddv_scf|^2 =  7.697E-16

     Pert. #  1: Fermi energy shift (Ry) =    -1.3553E-20     1.1210E-44
     Pert. #  2: Fermi energy shift (Ry) =     2.7105E-20     2.9894E-44

      iter #   9 total cpu time :  7879.7 secs   av.it.:  18.7
      thresh= 2.774E-09 alpha_mix =  0.700 |ddv_scf|^2 =  1.030E-16

     Pert. #  1: Fermi energy shift (Ry) =    -9.0350E-21     1.1210E-44
     Pert. #  2: Fermi energy shift (Ry) =     1.2423E-20     2.9894E-44

      iter #  10 total cpu time :  7969.0 secs   av.it.:  19.3
      thresh= 1.015E-09 alpha_mix =  0.700 |ddv_scf|^2 =  4.708E-17

     End of self-consistent calculation

     Convergence has been achieved 


     Representation #  13 modes #  14  15

     Self-consistent Calculation

     Pert. #  1: Fermi energy shift (Ry) =    -3.6140E-20     5.6052E-45
     Pert. #  2: Fermi energy shift (Ry) =    -9.0350E-20     3.7368E-45

      iter #   1 total cpu time :  8119.8 secs   av.it.:   6.7
      thresh= 1.000E-02 alpha_mix =  0.700 |ddv_scf|^2 =  2.649E-09

     Pert. #  1: Fermi energy shift (Ry) =    -8.6736E-19    -1.1958E-43
     Pert. #  2: Fermi energy shift (Ry) =    -1.8793E-18    -8.9683E-44

      iter #   2 total cpu time :  8236.5 secs   av.it.:  19.7
      thresh= 5.147E-06 alpha_mix =  0.700 |ddv_scf|^2 =  8.393E-09

     Pert. #  1: Fermi energy shift (Ry) =     5.7824E-19     2.0926E-43
     Pert. #  2: Fermi energy shift (Ry) =    -5.7824E-19     2.3915E-43

      iter #   3 total cpu time :  8335.8 secs   av.it.:  17.8
      thresh= 9.162E-06 alpha_mix =  0.700 |ddv_scf|^2 =  5.971E-09

     Pert. #  1: Fermi energy shift (Ry) =    -2.1684E-19     8.9683E-44
     Pert. #  2: Fermi energy shift (Ry) =     0.0000E+00    -7.4736E-44

      iter #   4 total cpu time :  8436.3 secs   av.it.:  16.9
      thresh= 7.727E-06 alpha_mix =  0.700 |ddv_scf|^2 =  2.027E-11

     Pert. #  1: Fermi energy shift (Ry) =    -7.2280E-20    -5.6052E-45
     Pert. #  2: Fermi energy shift (Ry) =    -5.4210E-20    -1.8684E-45

      iter #   5 total cpu time :  8543.8 secs   av.it.:  19.1
      thresh= 4.502E-07 alpha_mix =  0.700 |ddv_scf|^2 =  1.761E-12

     Pert. #  1: Fermi energy shift (Ry) =    -7.2280E-20     7.4736E-45
     Pert. #  2: Fermi energy shift (Ry) =     9.0350E-20     5.6052E-45

      iter #   6 total cpu time :  8640.5 secs   av.it.:  18.8
      thresh= 1.327E-07 alpha_mix =  0.700 |ddv_scf|^2 =  6.310E-14

     Pert. #  1: Fermi energy shift (Ry) =    -2.1684E-19     4.6710E-45
     Pert. #  2: Fermi energy shift (Ry) =     5.4210E-20    -3.7368E-45

      iter #   7 total cpu time :  8744.8 secs   av.it.:  19.0
      thresh= 2.512E-08 alpha_mix =  0.700 |ddv_scf|^2 =  3.271E-15

     Pert. #  1: Fermi energy shift (Ry) =    -1.8070E-19     5.6052E-45
     Pert. #  2: Fermi energy shift (Ry) =    -5.4210E-20     4.6710E-45

      iter #   8 total cpu time :  8840.0 secs   av.it.:  19.8
      thresh= 5.719E-09 alpha_mix =  0.700 |ddv_scf|^2 =  3.242E-15

     Pert. #  1: Fermi energy shift (Ry) =    -3.2526E-19     5.6052E-45
     Pert. #  2: Fermi energy shift (Ry) =     1.4456E-19     4.6710E-45

      iter #   9 total cpu time :  8930.9 secs   av.it.:  18.4
      thresh= 5.694E-09 alpha_mix =  0.700 |ddv_scf|^2 =  1.142E-15

     Pert. #  1: Fermi energy shift (Ry) =    -1.0842E-19     5.6052E-45
     Pert. #  2: Fermi energy shift (Ry) =     1.6263E-19     4.6710E-45

      iter #  10 total cpu time :  9021.3 secs   av.it.:  18.0
      thresh= 3.380E-09 alpha_mix =  0.700 |ddv_scf|^2 =  1.137E-16

     Pert. #  1: Fermi energy shift (Ry) =    -1.0842E-19     5.6052E-45
     Pert. #  2: Fermi energy shift (Ry) =    -1.8070E-20     4.6710E-45

      iter #  11 total cpu time :  9109.2 secs   av.it.:  18.9
      thresh= 1.066E-09 alpha_mix =  0.700 |ddv_scf|^2 =  6.883E-17

     End of self-consistent calculation

     Convergence has been achieved 


     Representation #  14 modes #  16  17

     Self-consistent Calculation

     Pert. #  1: Fermi energy shift (Ry) =     1.4456E-19     2.2421E-44
     Pert. #  2: Fermi energy shift (Ry) =     0.0000E+00    -2.2421E-44

      iter #   1 total cpu time :  9258.4 secs   av.it.:   8.0
      thresh= 1.000E-02 alpha_mix =  0.700 |ddv_scf|^2 =  1.899E-08

     Pert. #  1: Fermi energy shift (Ry) =     0.0000E+00    -1.4947E-43
     Pert. #  2: Fermi energy shift (Ry) =     4.0477E-18     4.4842E-44

      iter #   2 total cpu time :  9362.4 secs   av.it.:  19.5
      thresh= 1.378E-05 alpha_mix =  0.700 |ddv_scf|^2 =  1.921E-08

     Pert. #  1: Fermi energy shift (Ry) =     2.3130E-18    -3.1389E-43
     Pert. #  2: Fermi energy shift (Ry) =     0.0000E+00     6.9504E-43

      iter #   3 total cpu time :  9468.5 secs   av.it.:  18.9
      thresh= 1.386E-05 alpha_mix =  0.700 |ddv_scf|^2 =  2.790E-08

     Pert. #  1: Fermi energy shift (Ry) =    -1.4456E-19    -1.0463E-43
     Pert. #  2: Fermi energy shift (Ry) =     3.6140E-20     8.9683E-44

      iter #   4 total cpu time :  9591.8 secs   av.it.:  16.7
      thresh= 1.670E-05 alpha_mix =  0.700 |ddv_scf|^2 =  3.267E-10

     Pert. #  1: Fermi energy shift (Ry) =    -1.8070E-19     2.2421E-44
     Pert. #  2: Fermi energy shift (Ry) =    -1.8070E-20     5.6052E-45

      iter #   5 total cpu time :  9691.4 secs   av.it.:  18.7
      thresh= 1.808E-06 alpha_mix =  0.700 |ddv_scf|^2 =  6.741E-12

     Pert. #  1: Fermi energy shift (Ry) =     3.6140E-20     3.7368E-45
     Pert. #  2: Fermi energy shift (Ry) =     1.9877E-19     1.3079E-44

      iter #   6 total cpu time :  9788.0 secs   av.it.:  18.8
      thresh= 2.596E-07 alpha_mix =  0.700 |ddv_scf|^2 =  1.275E-13

     Pert. #  1: Fermi energy shift (Ry) =    -1.4456E-19     1.8684E-44
     Pert. #  2: Fermi energy shift (Ry) =     1.0842E-19    -9.3420E-45

      iter #   7 total cpu time :  9875.0 secs   av.it.:  18.9
      thresh= 3.571E-08 alpha_mix =  0.700 |ddv_scf|^2 =  2.008E-14

     Pert. #  1: Fermi energy shift (Ry) =    -1.4456E-19     1.8684E-44
     Pert. #  2: Fermi energy shift (Ry) =     1.6263E-19    -9.3420E-45

      iter #   8 total cpu time :  9966.2 secs   av.it.:  19.7
      thresh= 1.417E-08 alpha_mix =  0.700 |ddv_scf|^2 =  1.784E-14

     Pert. #  1: Fermi energy shift (Ry) =    -2.8912E-19     1.8684E-44
     Pert. #  2: Fermi energy shift (Ry) =     5.4210E-20    -9.3420E-45

      iter #   9 total cpu time : 10063.7 secs   av.it.:  18.8
      thresh= 1.336E-08 alpha_mix =  0.700 |ddv_scf|^2 =  1.246E-15

     Pert. #  1: Fermi energy shift (Ry) =    -2.5298E-19     1.8684E-44
     Pert. #  2: Fermi energy shift (Ry) =    -1.2649E-19    -9.3420E-45

      iter #  10 total cpu time : 10158.2 secs   av.it.:  18.7
      thresh= 3.530E-09 alpha_mix =  0.700 |ddv_scf|^2 =  1.422E-15

     Pert. #  1: Fermi energy shift (Ry) =    -1.8070E-19     1.8684E-44
     Pert. #  2: Fermi energy shift (Ry) =     1.8070E-19    -9.3420E-45

      iter #  11 total cpu time : 10247.5 secs   av.it.:  18.2
      thresh= 3.771E-09 alpha_mix =  0.700 |ddv_scf|^2 =  1.972E-16

     Pert. #  1: Fermi energy shift (Ry) =    -1.0842E-19     1.8684E-44
     Pert. #  2: Fermi energy shift (Ry) =     7.2280E-20    -9.3420E-45

      iter #  12 total cpu time : 10342.3 secs   av.it.:  18.6
      thresh= 1.404E-09 alpha_mix =  0.700 |ddv_scf|^2 =  4.251E-18

     End of self-consistent calculation

     Convergence has been achieved 


     Representation #  15 modes #  18  19

     Self-consistent Calculation

     Pert. #  1: Fermi energy shift (Ry) =     2.8189E-18     1.1210E-44
     Pert. #  2: Fermi energy shift (Ry) =     1.4456E-19    -3.7368E-45

      iter #   1 total cpu time : 10523.2 secs   av.it.:   7.0
      thresh= 1.000E-02 alpha_mix =  0.700 |ddv_scf|^2 =  8.756E-09

     Pert. #  1: Fermi energy shift (Ry) =    -7.5171E-18    -1.1958E-43
     Pert. #  2: Fermi energy shift (Ry) =    -2.6021E-18     8.9683E-44

      iter #   2 total cpu time : 10627.8 secs   av.it.:  19.9
      thresh= 9.357E-06 alpha_mix =  0.700 |ddv_scf|^2 =  1.300E-07

     Pert. #  1: Fermi energy shift (Ry) =     1.6624E-18     4.7831E-43
     Pert. #  2: Fermi energy shift (Ry) =     2.1684E-19    -1.9132E-42

      iter #   3 total cpu time : 10730.1 secs   av.it.:  16.8
      thresh= 3.605E-05 alpha_mix =  0.700 |ddv_scf|^2 =  2.249E-09

     Pert. #  1: Fermi energy shift (Ry) =    -1.6263E-19    -1.1210E-43
     Pert. #  2: Fermi energy shift (Ry) =     1.5360E-19     5.6052E-45

      iter #   4 total cpu time : 10843.9 secs   av.it.:  17.7
      thresh= 4.742E-06 alpha_mix =  0.700 |ddv_scf|^2 =  3.593E-11

     Pert. #  1: Fermi energy shift (Ry) =    -2.3491E-19     5.6052E-45
     Pert. #  2: Fermi energy shift (Ry) =     1.3553E-19    -7.4736E-45

      iter #   5 total cpu time : 10939.6 secs   av.it.:  19.0
      thresh= 5.994E-07 alpha_mix =  0.700 |ddv_scf|^2 =  4.789E-12

     Pert. #  1: Fermi energy shift (Ry) =    -3.6140E-20     7.4736E-45
     Pert. #  2: Fermi energy shift (Ry) =     3.3430E-19    -1.8684E-44

      iter #   6 total cpu time : 11035.4 secs   av.it.:  18.4
      thresh= 2.188E-07 alpha_mix =  0.700 |ddv_scf|^2 =  2.180E-13

     Pert. #  1: Fermi energy shift (Ry) =     5.0596E-19     7.4736E-45
     Pert. #  2: Fermi energy shift (Ry) =    -3.6140E-20    -9.3420E-45

      iter #   7 total cpu time : 11132.7 secs   av.it.:  18.9
      thresh= 4.669E-08 alpha_mix =  0.700 |ddv_scf|^2 =  3.680E-14

     Pert. #  1: Fermi energy shift (Ry) =     2.5298E-19     7.4736E-45
     Pert. #  2: Fermi energy shift (Ry) =     2.9816E-19     1.8684E-45

      iter #   8 total cpu time : 11225.3 secs   av.it.:  18.9
      thresh= 1.918E-08 alpha_mix =  0.700 |ddv_scf|^2 =  6.740E-15

     Pert. #  1: Fermi energy shift (Ry) =     3.7947E-19     1.4947E-44
     Pert. #  2: Fermi energy shift (Ry) =    -1.5360E-19    -1.8684E-44

      iter #   9 total cpu time : 11331.3 secs   av.it.:  18.9
      thresh= 8.210E-09 alpha_mix =  0.700 |ddv_scf|^2 =  2.450E-15

     Pert. #  1: Fermi energy shift (Ry) =     4.1561E-19     1.4947E-44
     Pert. #  2: Fermi energy shift (Ry) =    -9.9385E-20    -1.8684E-44

      iter #  10 total cpu time : 11436.1 secs   av.it.:  18.0
      thresh= 4.950E-09 alpha_mix =  0.700 |ddv_scf|^2 =  6.215E-17

     End of self-consistent calculation

     Convergence has been achieved 


     Representation #  16 modes #  20  21

     Self-consistent Calculation

     Pert. #  1: Fermi energy shift (Ry) =    -2.3852E-18    -1.4947E-44
     Pert. #  2: Fermi energy shift (Ry) =     6.1438E-19     1.4947E-44

      iter #   1 total cpu time : 11612.1 secs   av.it.:   8.0
      thresh= 1.000E-02 alpha_mix =  0.700 |ddv_scf|^2 =  1.579E-08

     Pert. #  1: Fermi energy shift (Ry) =     2.0238E-18     8.9683E-44
     Pert. #  2: Fermi energy shift (Ry) =    -7.2280E-19     1.4947E-44

      iter #   2 total cpu time : 11723.4 secs   av.it.:  19.7
      thresh= 1.257E-05 alpha_mix =  0.700 |ddv_scf|^2 =  8.713E-08

     Pert. #  1: Fermi energy shift (Ry) =    -8.6736E-19     7.1746E-43
     Pert. #  2: Fermi energy shift (Ry) =     2.0238E-18    -9.5662E-43

      iter #   3 total cpu time : 11820.6 secs   av.it.:  17.4
      thresh= 2.952E-05 alpha_mix =  0.700 |ddv_scf|^2 =  2.912E-08

     Pert. #  1: Fermi energy shift (Ry) =    -9.0350E-21    -6.5768E-43
     Pert. #  2: Fermi energy shift (Ry) =     6.7763E-20     2.9894E-44

      iter #   4 total cpu time : 11915.0 secs   av.it.:  16.9
      thresh= 1.707E-05 alpha_mix =  0.700 |ddv_scf|^2 =  4.557E-11

     Pert. #  1: Fermi energy shift (Ry) =    -1.0842E-19    -4.4842E-44
     Pert. #  2: Fermi energy shift (Ry) =     8.5833E-20    -3.7368E-45

      iter #   5 total cpu time : 12023.6 secs   av.it.:  19.1
      thresh= 6.750E-07 alpha_mix =  0.700 |ddv_scf|^2 =  7.138E-12

     Pert. #  1: Fermi energy shift (Ry) =     1.7167E-19    -2.9894E-44
     Pert. #  2: Fermi energy shift (Ry) =     4.5175E-21     1.1210E-44

      iter #   6 total cpu time : 12119.3 secs   av.it.:  18.8
      thresh= 2.672E-07 alpha_mix =  0.700 |ddv_scf|^2 =  1.605E-13

     Pert. #  1: Fermi energy shift (Ry) =     2.7105E-20    -3.7368E-44
     Pert. #  2: Fermi energy shift (Ry) =     1.3553E-20    -3.7368E-44

      iter #   7 total cpu time : 12226.4 secs   av.it.:  19.7
      thresh= 4.006E-08 alpha_mix =  0.700 |ddv_scf|^2 =  1.347E-14

     Pert. #  1: Fermi energy shift (Ry) =    -3.6140E-19    -2.9894E-44
     Pert. #  2: Fermi energy shift (Ry) =     2.0781E-19     1.1210E-44

      iter #   8 total cpu time : 12324.8 secs   av.it.:  19.6
      thresh= 1.161E-08 alpha_mix =  0.700 |ddv_scf|^2 =  3.539E-15

     Pert. #  1: Fermi energy shift (Ry) =    -2.1684E-19    -2.9894E-44
     Pert. #  2: Fermi energy shift (Ry) =     6.3245E-20     1.1210E-44

      iter #   9 total cpu time : 12418.2 secs   av.it.:  19.6
      thresh= 5.949E-09 alpha_mix =  0.700 |ddv_scf|^2 =  6.781E-15

     Pert. #  1: Fermi energy shift (Ry) =     2.7105E-20    -2.9894E-44
     Pert. #  2: Fermi energy shift (Ry) =     4.5175E-20     1.1210E-44

      iter #  10 total cpu time : 12501.6 secs   av.it.:  17.8
      thresh= 8.235E-09 alpha_mix =  0.700 |ddv_scf|^2 =  4.756E-15

     Pert. #  1: Fermi energy shift (Ry) =     9.0350E-21    -2.9894E-44
     Pert. #  2: Fermi energy shift (Ry) =     9.0350E-20     1.1210E-44

      iter #  11 total cpu time : 12591.0 secs   av.it.:  17.2
      thresh= 6.897E-09 alpha_mix =  0.700 |ddv_scf|^2 =  6.481E-18

     End of self-consistent calculation

     Convergence has been achieved 


     Representation #  17 modes #  22  23

     Self-consistent Calculation

     Pert. #  1: Fermi energy shift (Ry) =     5.7824E-19    -2.3355E-46
     Pert. #  2: Fermi energy shift (Ry) =    -1.5902E-18    -9.3420E-46

      iter #   1 total cpu time : 12743.1 secs   av.it.:   7.0
      thresh= 1.000E-02 alpha_mix =  0.700 |ddv_scf|^2 =  1.805E-08

     Pert. #  1: Fermi energy shift (Ry) =    -1.1565E-18     1.8684E-45
     Pert. #  2: Fermi energy shift (Ry) =     5.2042E-18    -1.8684E-45

      iter #   2 total cpu time : 12918.2 secs   av.it.:  19.6
      thresh= 1.343E-05 alpha_mix =  0.700 |ddv_scf|^2 =  2.628E-07

     Pert. #  1: Fermi energy shift (Ry) =     1.0119E-18     8.9683E-44
     Pert. #  2: Fermi energy shift (Ry) =    -1.4456E-19     1.4947E-44

      iter #   3 total cpu time : 13038.9 secs   av.it.:  16.9
      thresh= 5.126E-05 alpha_mix =  0.700 |ddv_scf|^2 =  7.405E-09

     Pert. #  1: Fermi energy shift (Ry) =     2.2588E-20    -2.6158E-44
     Pert. #  2: Fermi energy shift (Ry) =    -3.8399E-20     0.0000E+00

      iter #   4 total cpu time : 13140.6 secs   av.it.:  17.0
      thresh= 8.605E-06 alpha_mix =  0.700 |ddv_scf|^2 =  1.312E-11

     Pert. #  1: Fermi energy shift (Ry) =    -1.2423E-20     1.8684E-45
     Pert. #  2: Fermi energy shift (Ry) =    -1.0447E-20     2.3355E-46

      iter #   5 total cpu time : 13246.4 secs   av.it.:  19.3
      thresh= 3.623E-07 alpha_mix =  0.700 |ddv_scf|^2 =  9.452E-13

     Pert. #  1: Fermi energy shift (Ry) =     6.7763E-21     1.1677E-46
     Pert. #  2: Fermi energy shift (Ry) =    -1.1294E-21    -1.1677E-46

      iter #   6 total cpu time : 13343.8 secs   av.it.:  19.1
      thresh= 9.722E-08 alpha_mix =  0.700 |ddv_scf|^2 =  3.081E-13

     Pert. #  1: Fermi energy shift (Ry) =     0.0000E+00     4.6710E-46
     Pert. #  2: Fermi energy shift (Ry) =     2.8234E-21    -7.0065E-46

      iter #   7 total cpu time : 13438.2 secs   av.it.:  18.9
      thresh= 5.551E-08 alpha_mix =  0.700 |ddv_scf|^2 =  1.126E-14

     Pert. #  1: Fermi energy shift (Ry) =    -1.1294E-21     4.6710E-46
     Pert. #  2: Fermi energy shift (Ry) =     3.3881E-21    -1.1677E-45

      iter #   8 total cpu time : 13536.3 secs   av.it.:  18.4
      thresh= 1.061E-08 alpha_mix =  0.700 |ddv_scf|^2 =  8.527E-16

     Pert. #  1: Fermi energy shift (Ry) =     2.2588E-21     4.6710E-46
     Pert. #  2: Fermi energy shift (Ry) =     1.1294E-21    -1.1677E-45

      iter #   9 total cpu time : 13635.6 secs   av.it.:  19.9
      thresh= 2.920E-09 alpha_mix =  0.700 |ddv_scf|^2 =  1.981E-15

     Pert. #  1: Fermi energy shift (Ry) =     1.1294E-21     4.6710E-46
     Pert. #  2: Fermi energy shift (Ry) =    -6.7763E-21    -1.1677E-45

      iter #  10 total cpu time : 13726.5 secs   av.it.:  17.9
      thresh= 4.451E-09 alpha_mix =  0.700 |ddv_scf|^2 =  6.712E-17

     End of self-consistent calculation

     Convergence has been achieved 


     Representation #  18 modes #  24  25

     Self-consistent Calculation

     Pert. #  1: Fermi energy shift (Ry) =     1.4456E-19     3.7368E-45
     Pert. #  2: Fermi energy shift (Ry) =    -2.8912E-19     0.0000E+00

      iter #   1 total cpu time : 13887.0 secs   av.it.:   7.0
      thresh= 1.000E-02 alpha_mix =  0.700 |ddv_scf|^2 =  1.581E-08

     Pert. #  1: Fermi energy shift (Ry) =     0.0000E+00     1.4947E-44
     Pert. #  2: Fermi energy shift (Ry) =     6.3607E-18    -1.1210E-44

      iter #   2 total cpu time : 13984.1 secs   av.it.:  19.5
      thresh= 1.257E-05 alpha_mix =  0.700 |ddv_scf|^2 =  2.174E-07

     Pert. #  1: Fermi energy shift (Ry) =     2.8912E-19     0.0000E+00
     Pert. #  2: Fermi energy shift (Ry) =     2.8912E-19    -2.0926E-43

      iter #   3 total cpu time : 14101.5 secs   av.it.:  16.6
      thresh= 4.663E-05 alpha_mix =  0.700 |ddv_scf|^2 =  7.282E-09

     Pert. #  1: Fermi energy shift (Ry) =     1.8070E-20    -2.2421E-44
     Pert. #  2: Fermi energy shift (Ry) =    -1.2649E-19    -1.8684E-44

      iter #   4 total cpu time : 14207.4 secs   av.it.:  17.1
      thresh= 8.534E-06 alpha_mix =  0.700 |ddv_scf|^2 =  9.327E-11

     Pert. #  1: Fermi energy shift (Ry) =    -5.4210E-20     2.8026E-45
     Pert. #  2: Fermi energy shift (Ry) =    -1.3553E-19    -4.6710E-46

      iter #   5 total cpu time : 14314.2 secs   av.it.:  18.8
      thresh= 9.658E-07 alpha_mix =  0.700 |ddv_scf|^2 =  7.376E-12

     Pert. #  1: Fermi energy shift (Ry) =     3.6140E-20     9.3420E-46
     Pert. #  2: Fermi energy shift (Ry) =    -4.9693E-20    -9.3420E-46

      iter #   6 total cpu time : 14401.0 secs   av.it.:  18.5
      thresh= 2.716E-07 alpha_mix =  0.700 |ddv_scf|^2 =  5.862E-13

     Pert. #  1: Fermi energy shift (Ry) =     2.7105E-20     2.8026E-45
     Pert. #  2: Fermi energy shift (Ry) =    -9.0350E-21    -4.6710E-46

      iter #   7 total cpu time : 14487.5 secs   av.it.:  17.9
      thresh= 7.656E-08 alpha_mix =  0.700 |ddv_scf|^2 =  2.045E-14

     Pert. #  1: Fermi energy shift (Ry) =     1.8070E-20     9.3420E-46
     Pert. #  2: Fermi energy shift (Ry) =    -2.7105E-20    -4.6710E-45

      iter #   8 total cpu time : 14598.9 secs   av.it.:  18.9
      thresh= 1.430E-08 alpha_mix =  0.700 |ddv_scf|^2 =  5.586E-15

     Pert. #  1: Fermi energy shift (Ry) =     1.8070E-20     9.3420E-46
     Pert. #  2: Fermi energy shift (Ry) =     4.5175E-21    -1.1677E-45

      iter #   9 total cpu time : 14687.1 secs   av.it.:  18.8
      thresh= 7.474E-09 alpha_mix =  0.700 |ddv_scf|^2 =  1.117E-15

     Pert. #  1: Fermi energy shift (Ry) =     2.7105E-20     9.3420E-46
     Pert. #  2: Fermi energy shift (Ry) =    -2.2588E-20     1.1677E-45

      iter #  10 total cpu time : 14770.8 secs   av.it.:  18.7
      thresh= 3.343E-09 alpha_mix =  0.700 |ddv_scf|^2 =  6.070E-17

     End of self-consistent calculation

     Convergence has been achieved 


     Representation #  19 modes #  26  27

     Self-consistent Calculation

     Pert. #  1: Fermi energy shift (Ry) =    -1.0119E-18     1.6816E-44
     Pert. #  2: Fermi energy shift (Ry) =    -9.3964E-19    -2.0552E-44

      iter #   1 total cpu time : 14968.9 secs   av.it.:   7.0
      thresh= 1.000E-02 alpha_mix =  0.700 |ddv_scf|^2 =  1.580E-08

     Pert. #  1: Fermi energy shift (Ry) =    -5.7824E-18     0.0000E+00
     Pert. #  2: Fermi energy shift (Ry) =     6.0715E-18     0.0000E+00

      iter #   2 total cpu time : 15070.8 secs   av.it.:  19.8
      thresh= 1.257E-05 alpha_mix =  0.700 |ddv_scf|^2 =  2.588E-07

     Pert. #  1: Fermi energy shift (Ry) =    -3.6140E-19     2.2421E-44
     Pert. #  2: Fermi energy shift (Ry) =    -6.8666E-19    -8.9683E-44

      iter #   3 total cpu time : 15181.9 secs   av.it.:  16.8
      thresh= 5.087E-05 alpha_mix =  0.700 |ddv_scf|^2 =  3.710E-09

     Pert. #  1: Fermi energy shift (Ry) =    -1.3553E-20    -7.4736E-45
     Pert. #  2: Fermi energy shift (Ry) =     1.1294E-20    -4.6710E-45

      iter #   4 total cpu time : 15277.9 secs   av.it.:  17.3
      thresh= 6.091E-06 alpha_mix =  0.700 |ddv_scf|^2 =  3.275E-11

     Pert. #  1: Fermi energy shift (Ry) =    -5.4210E-20     2.2421E-44
     Pert. #  2: Fermi energy shift (Ry) =     3.1623E-20    -1.9618E-44

      iter #   5 total cpu time : 15371.8 secs   av.it.:  19.0
      thresh= 5.723E-07 alpha_mix =  0.700 |ddv_scf|^2 =  5.608E-12

     Pert. #  1: Fermi energy shift (Ry) =    -5.8728E-20     1.6816E-44
     Pert. #  2: Fermi energy shift (Ry) =     1.1294E-19    -2.0552E-44

      iter #   6 total cpu time : 15459.9 secs   av.it.:  18.8
      thresh= 2.368E-07 alpha_mix =  0.700 |ddv_scf|^2 =  1.913E-13

     Pert. #  1: Fermi energy shift (Ry) =    -2.7105E-20     1.6816E-44
     Pert. #  2: Fermi energy shift (Ry) =     1.0390E-19    -2.0552E-44

      iter #   7 total cpu time : 15569.4 secs   av.it.:  18.9
      thresh= 4.373E-08 alpha_mix =  0.700 |ddv_scf|^2 =  2.194E-14

     Pert. #  1: Fermi energy shift (Ry) =    -3.6140E-20     1.6816E-44
     Pert. #  2: Fermi energy shift (Ry) =     1.2197E-19    -2.0552E-44

      iter #   8 total cpu time : 15684.1 secs   av.it.:  19.2
      thresh= 1.481E-08 alpha_mix =  0.700 |ddv_scf|^2 =  4.301E-15

     Pert. #  1: Fermi energy shift (Ry) =     1.0390E-19     1.6816E-44
     Pert. #  2: Fermi energy shift (Ry) =     6.7763E-20    -2.0552E-44

      iter #   9 total cpu time : 15769.7 secs   av.it.:  19.3
      thresh= 6.558E-09 alpha_mix =  0.700 |ddv_scf|^2 =  2.098E-15

     Pert. #  1: Fermi energy shift (Ry) =    -4.5175E-20     1.6816E-44
     Pert. #  2: Fermi energy shift (Ry) =     4.0658E-20    -2.0552E-44

      iter #  10 total cpu time : 15865.8 secs   av.it.:  17.9
      thresh= 4.580E-09 alpha_mix =  0.700 |ddv_scf|^2 =  1.685E-16

     Pert. #  1: Fermi energy shift (Ry) =    -3.1623E-20     1.6816E-44
     Pert. #  2: Fermi energy shift (Ry) =     8.5833E-20    -2.0552E-44

      iter #  11 total cpu time : 15951.4 secs   av.it.:  18.8
      thresh= 1.298E-09 alpha_mix =  0.700 |ddv_scf|^2 =  7.049E-17

     End of self-consistent calculation

     Convergence has been achieved 


     Representation #  20 modes #  28  29

     Self-consistent Calculation

     Pert. #  1: Fermi energy shift (Ry) =    -4.3368E-19     7.4736E-45
     Pert. #  2: Fermi energy shift (Ry) =     3.6140E-19    -3.7368E-45

      iter #   1 total cpu time : 16093.8 secs   av.it.:   7.5
      thresh= 1.000E-02 alpha_mix =  0.700 |ddv_scf|^2 =  1.171E-08

     Pert. #  1: Fermi energy shift (Ry) =     1.1565E-18     0.0000E+00
     Pert. #  2: Fermi energy shift (Ry) =     2.3130E-18    -8.9683E-44

      iter #   2 total cpu time : 16223.6 secs   av.it.:  19.9
      thresh= 1.082E-05 alpha_mix =  0.700 |ddv_scf|^2 =  1.608E-07

     Pert. #  1: Fermi energy shift (Ry) =     0.0000E+00    -8.3704E-43
     Pert. #  2: Fermi energy shift (Ry) =     1.4456E-19    -2.3915E-43

      iter #   3 total cpu time : 16319.7 secs   av.it.:  16.9
      thresh= 4.010E-05 alpha_mix =  0.700 |ddv_scf|^2 =  4.696E-09

     Pert. #  1: Fermi energy shift (Ry) =     3.6140E-20     4.4842E-44
     Pert. #  2: Fermi energy shift (Ry) =    -5.4210E-20    -4.4842E-44

      iter #   4 total cpu time : 16417.6 secs   av.it.:  17.9
      thresh= 6.853E-06 alpha_mix =  0.700 |ddv_scf|^2 =  1.187E-10

     Pert. #  1: Fermi energy shift (Ry) =     0.0000E+00    -2.2421E-44
     Pert. #  2: Fermi energy shift (Ry) =     1.0842E-19    -6.3526E-44

      iter #   5 total cpu time : 16513.2 secs   av.it.:  18.8
      thresh= 1.089E-06 alpha_mix =  0.700 |ddv_scf|^2 =  9.192E-13

     Pert. #  1: Fermi energy shift (Ry) =     5.4210E-20    -2.2421E-44
     Pert. #  2: Fermi energy shift (Ry) =     1.8070E-20    -7.4736E-45

      iter #   6 total cpu time : 16604.1 secs   av.it.:  19.5
      thresh= 9.588E-08 alpha_mix =  0.700 |ddv_scf|^2 =  6.630E-14

     Pert. #  1: Fermi energy shift (Ry) =    -3.6140E-20    -7.4736E-45
     Pert. #  2: Fermi energy shift (Ry) =    -2.7105E-20     4.4842E-44

      iter #   7 total cpu time : 16698.3 secs   av.it.:  19.7
      thresh= 2.575E-08 alpha_mix =  0.700 |ddv_scf|^2 =  1.330E-14

     Pert. #  1: Fermi energy shift (Ry) =    -1.8070E-20    -7.4736E-45
     Pert. #  2: Fermi energy shift (Ry) =     4.5175E-20     4.4842E-44

      iter #   8 total cpu time : 16796.4 secs   av.it.:  19.5
      thresh= 1.153E-08 alpha_mix =  0.700 |ddv_scf|^2 =  3.153E-15

     Pert. #  1: Fermi energy shift (Ry) =     5.4210E-20    -7.4736E-45
     Pert. #  2: Fermi energy shift (Ry) =     2.7105E-20     4.4842E-44

      iter #   9 total cpu time : 16890.4 secs   av.it.:  19.3
      thresh= 5.615E-09 alpha_mix =  0.700 |ddv_scf|^2 =  3.326E-15

     Pert. #  1: Fermi energy shift (Ry) =     0.0000E+00    -7.4736E-45
     Pert. #  2: Fermi energy shift (Ry) =     0.0000E+00     4.4842E-44

      iter #  10 total cpu time : 16978.7 secs   av.it.:  17.7
      thresh= 5.767E-09 alpha_mix =  0.700 |ddv_scf|^2 =  6.453E-16

     Pert. #  1: Fermi energy shift (Ry) =    -1.4456E-19    -3.7368E-44
     Pert. #  2: Fermi energy shift (Ry) =    -1.8070E-20    -3.7368E-45

      iter #  11 total cpu time : 17062.3 secs   av.it.:  17.9
      thresh= 2.540E-09 alpha_mix =  0.700 |ddv_scf|^2 =  2.069E-17

     End of self-consistent calculation

     Convergence has been achieved 


     Representation #  21 modes #  30  31

     Self-consistent Calculation

     Pert. #  1: Fermi energy shift (Ry) =     2.8912E-19    -2.9894E-44
     Pert. #  2: Fermi energy shift (Ry) =    -4.3368E-19     7.4736E-45

      iter #   1 total cpu time : 17206.3 secs   av.it.:   7.0
      thresh= 1.000E-02 alpha_mix =  0.700 |ddv_scf|^2 =  1.670E-08

     Pert. #  1: Fermi energy shift (Ry) =    -5.7824E-18     1.7937E-43
     Pert. #  2: Fermi energy shift (Ry) =     8.6736E-18     4.4842E-44

      iter #   2 total cpu time : 17306.5 secs   av.it.:  19.8
      thresh= 1.292E-05 alpha_mix =  0.700 |ddv_scf|^2 =  2.641E-07

     Pert. #  1: Fermi energy shift (Ry) =     1.0119E-18     1.0463E-43
     Pert. #  2: Fermi energy shift (Ry) =    -3.6140E-19    -2.0926E-43

      iter #   3 total cpu time : 17416.1 secs   av.it.:  16.7
      thresh= 5.139E-05 alpha_mix =  0.700 |ddv_scf|^2 =  4.614E-09

     Pert. #  1: Fermi energy shift (Ry) =    -5.4210E-20    -2.6158E-44
     Pert. #  2: Fermi energy shift (Ry) =     2.2588E-20     3.1763E-44

      iter #   4 total cpu time : 17513.2 secs   av.it.:  17.2
      thresh= 6.793E-06 alpha_mix =  0.700 |ddv_scf|^2 =  5.682E-11

     Pert. #  1: Fermi energy shift (Ry) =    -9.9385E-20    -4.4842E-44
     Pert. #  2: Fermi energy shift (Ry) =    -2.7105E-20     0.0000E+00

      iter #   5 total cpu time : 17621.3 secs   av.it.:  18.9
      thresh= 7.538E-07 alpha_mix =  0.700 |ddv_scf|^2 =  5.526E-12

     Pert. #  1: Fermi energy shift (Ry) =    -6.3245E-20    -4.4842E-44
     Pert. #  2: Fermi energy shift (Ry) =    -1.0842E-19     0.0000E+00

      iter #   6 total cpu time : 17715.5 secs   av.it.:  18.6
      thresh= 2.351E-07 alpha_mix =  0.700 |ddv_scf|^2 =  3.203E-13

     Pert. #  1: Fermi energy shift (Ry) =    -6.3245E-20    -4.4842E-44
     Pert. #  2: Fermi energy shift (Ry) =     1.8070E-19     0.0000E+00

      iter #   7 total cpu time : 17818.5 secs   av.it.:  18.5
      thresh= 5.659E-08 alpha_mix =  0.700 |ddv_scf|^2 =  3.058E-14

     Pert. #  1: Fermi energy shift (Ry) =    -7.2280E-20    -4.4842E-44
     Pert. #  2: Fermi energy shift (Ry) =    -9.0350E-21     0.0000E+00

      iter #   8 total cpu time : 17924.9 secs   av.it.:  18.9
      thresh= 1.749E-08 alpha_mix =  0.700 |ddv_scf|^2 =  5.135E-15

     Pert. #  1: Fermi energy shift (Ry) =    -9.0350E-20    -4.4842E-44
     Pert. #  2: Fermi energy shift (Ry) =     0.0000E+00     0.0000E+00

      iter #   9 total cpu time : 18016.9 secs   av.it.:  19.0
      thresh= 7.166E-09 alpha_mix =  0.700 |ddv_scf|^2 =  1.534E-15

     Pert. #  1: Fermi energy shift (Ry) =    -1.0842E-19    -4.4842E-44
     Pert. #  2: Fermi energy shift (Ry) =     1.8070E-20     0.0000E+00

      iter #  10 total cpu time : 18101.0 secs   av.it.:  18.7
      thresh= 3.916E-09 alpha_mix =  0.700 |ddv_scf|^2 =  5.387E-17

     End of self-consistent calculation

     Convergence has been achieved 


     Representation #  22 modes #  32  33

     Self-consistent Calculation

     Pert. #  1: Fermi energy shift (Ry) =     2.0238E-18     7.4736E-45
     Pert. #  2: Fermi energy shift (Ry) =     5.7824E-19    -7.4736E-44

      iter #   1 total cpu time : 18303.8 secs   av.it.:   7.5
      thresh= 1.000E-02 alpha_mix =  0.700 |ddv_scf|^2 =  3.361E-08

     Pert. #  1: Fermi energy shift (Ry) =     2.3130E-18    -4.1852E-43
     Pert. #  2: Fermi energy shift (Ry) =     1.6191E-17     4.7831E-43

      iter #   2 total cpu time : 18406.1 secs   av.it.:  19.7
      thresh= 1.833E-05 alpha_mix =  0.700 |ddv_scf|^2 =  5.623E-07

     Pert. #  1: Fermi energy shift (Ry) =     0.0000E+00    -2.9894E-44
     Pert. #  2: Fermi energy shift (Ry) =     1.4456E-19     1.1958E-43

      iter #   3 total cpu time : 18561.2 secs   av.it.:  16.8
      thresh= 7.499E-05 alpha_mix =  0.700 |ddv_scf|^2 =  9.246E-09

     Pert. #  1: Fermi energy shift (Ry) =    -1.4456E-19    -1.4947E-44
     Pert. #  2: Fermi energy shift (Ry) =     5.4210E-20    -3.7368E-44

      iter #   4 total cpu time : 18669.1 secs   av.it.:  16.9
      thresh= 9.616E-06 alpha_mix =  0.700 |ddv_scf|^2 =  3.101E-11

     Pert. #  1: Fermi energy shift (Ry) =    -3.6140E-20     0.0000E+00
     Pert. #  2: Fermi energy shift (Ry) =     3.0719E-19     0.0000E+00

      iter #   5 total cpu time : 18771.3 secs   av.it.:  18.9
      thresh= 5.568E-07 alpha_mix =  0.700 |ddv_scf|^2 =  3.432E-12

     Pert. #  1: Fermi energy shift (Ry) =    -3.6140E-20    -3.7368E-45
     Pert. #  2: Fermi energy shift (Ry) =     1.4456E-19    -8.4078E-45

      iter #   6 total cpu time : 18873.4 secs   av.it.:  18.8
      thresh= 1.853E-07 alpha_mix =  0.700 |ddv_scf|^2 =  2.995E-13

     Pert. #  1: Fermi energy shift (Ry) =     3.6140E-20    -3.7368E-45
     Pert. #  2: Fermi energy shift (Ry) =     1.9877E-19    -8.4078E-45

      iter #   7 total cpu time : 18964.1 secs   av.it.:  18.9
      thresh= 5.473E-08 alpha_mix =  0.700 |ddv_scf|^2 =  1.108E-14

     Pert. #  1: Fermi energy shift (Ry) =     3.6140E-20     0.0000E+00
     Pert. #  2: Fermi energy shift (Ry) =     1.9877E-19    -3.7368E-45

      iter #   8 total cpu time : 19059.8 secs   av.it.:  19.4
      thresh= 1.053E-08 alpha_mix =  0.700 |ddv_scf|^2 =  4.486E-15

     Pert. #  1: Fermi energy shift (Ry) =    -3.6140E-20     0.0000E+00
     Pert. #  2: Fermi energy shift (Ry) =     2.7105E-19    -3.7368E-45

      iter #   9 total cpu time : 19157.2 secs   av.it.:  19.5
      thresh= 6.698E-09 alpha_mix =  0.700 |ddv_scf|^2 =  5.595E-15

     Pert. #  1: Fermi energy shift (Ry) =     3.6140E-20    -3.7368E-45
     Pert. #  2: Fermi energy shift (Ry) =    -1.8070E-20    -8.4078E-45

      iter #  10 total cpu time : 19254.5 secs   av.it.:  17.9
      thresh= 7.480E-09 alpha_mix =  0.700 |ddv_scf|^2 =  1.716E-16

     Pert. #  1: Fermi energy shift (Ry) =     0.0000E+00     0.0000E+00
     Pert. #  2: Fermi energy shift (Ry) =     1.4456E-19    -3.7368E-45

      iter #  11 total cpu time : 19339.7 secs   av.it.:  18.8
      thresh= 1.310E-09 alpha_mix =  0.700 |ddv_scf|^2 =  3.623E-18

     End of self-consistent calculation

     Convergence has been achieved 


     Representation #  23 mode #  34

     Self-consistent Calculation

     Pert. #  1: Fermi energy shift (Ry) =    -1.0771E-27    -2.5077E-37

      iter #   1 total cpu time : 19473.2 secs   av.it.:   7.0
      thresh= 1.000E-02 alpha_mix =  0.700 |ddv_scf|^2 =  1.427E-08

     Pert. #  1: Fermi energy shift (Ry) =    -3.3658E-29    -2.4489E-40

      iter #   2 total cpu time : 19529.6 secs   av.it.:  17.0
      thresh= 1.195E-05 alpha_mix =  0.700 |ddv_scf|^2 =  1.105E-09

     Pert. #  1: Fermi energy shift (Ry) =    -1.0771E-27     6.1224E-41

      iter #   3 total cpu time : 19587.6 secs   av.it.:  16.8
      thresh= 3.325E-06 alpha_mix =  0.700 |ddv_scf|^2 =  2.782E-12

     Pert. #  1: Fermi energy shift (Ry) =    -5.3853E-28    -1.9132E-42

      iter #   4 total cpu time : 19642.2 secs   av.it.:  16.7
      thresh= 1.668E-07 alpha_mix =  0.700 |ddv_scf|^2 =  4.020E-14

     Pert. #  1: Fermi energy shift (Ry) =    -1.0771E-27    -4.7831E-43

      iter #   5 total cpu time : 19703.9 secs   av.it.:  16.5
      thresh= 2.005E-08 alpha_mix =  0.700 |ddv_scf|^2 =  1.263E-15

     Pert. #  1: Fermi energy shift (Ry) =    -5.3853E-28    -4.7831E-43

      iter #   6 total cpu time : 19780.8 secs   av.it.:  16.9
      thresh= 3.553E-09 alpha_mix =  0.700 |ddv_scf|^2 =  1.220E-17

     End of self-consistent calculation

     Convergence has been achieved 


     Representation #  24 mode #  35

     Self-consistent Calculation

     Pert. #  1: Fermi energy shift (Ry) =    -1.3463E-28    -7.8366E-39

      iter #   1 total cpu time : 19893.3 secs   av.it.:   7.0
      thresh= 1.000E-02 alpha_mix =  0.700 |ddv_scf|^2 =  1.048E-08

     Pert. #  1: Fermi energy shift (Ry) =    -4.0390E-28    -7.6530E-42

      iter #   2 total cpu time : 19965.2 secs   av.it.:  17.0
      thresh= 1.024E-05 alpha_mix =  0.700 |ddv_scf|^2 =  1.882E-10

     Pert. #  1: Fermi energy shift (Ry) =    -4.0390E-28     1.9132E-42

      iter #   3 total cpu time : 20030.1 secs   av.it.:  17.2
      thresh= 1.372E-06 alpha_mix =  0.700 |ddv_scf|^2 =  5.318E-12

     Pert. #  1: Fermi energy shift (Ry) =    -1.3463E-28    -4.7831E-43

      iter #   4 total cpu time : 20079.8 secs   av.it.:  16.7
      thresh= 2.306E-07 alpha_mix =  0.700 |ddv_scf|^2 =  8.559E-14

     Pert. #  1: Fermi energy shift (Ry) =    -4.0390E-28    -7.4736E-45

      iter #   5 total cpu time : 20141.0 secs   av.it.:  16.4
      thresh= 2.926E-08 alpha_mix =  0.700 |ddv_scf|^2 =  1.500E-15

     Pert. #  1: Fermi energy shift (Ry) =     1.3463E-28     1.1677E-46

      iter #   6 total cpu time : 20188.6 secs   av.it.:  16.1
      thresh= 3.873E-09 alpha_mix =  0.700 |ddv_scf|^2 =  2.977E-17

     End of self-consistent calculation

     Convergence has been achieved 


     Representation #  25 mode #  36

     Self-consistent Calculation

     Pert. #  1: Fermi energy shift (Ry) =    -1.3463E-28     0.0000E+00

      iter #   1 total cpu time : 20285.3 secs   av.it.:   6.9
      thresh= 1.000E-02 alpha_mix =  0.700 |ddv_scf|^2 =  1.052E-08

     Pert. #  1: Fermi energy shift (Ry) =     5.3853E-28     0.0000E+00

      iter #   2 total cpu time : 20359.4 secs   av.it.:  17.0
      thresh= 1.026E-05 alpha_mix =  0.700 |ddv_scf|^2 =  1.461E-10

     Pert. #  1: Fermi energy shift (Ry) =     2.6926E-28     0.0000E+00

      iter #   3 total cpu time : 20422.5 secs   av.it.:  17.1
      thresh= 1.209E-06 alpha_mix =  0.700 |ddv_scf|^2 =  4.566E-12

     Pert. #  1: Fermi energy shift (Ry) =     8.0779E-28     0.0000E+00

      iter #   4 total cpu time : 20489.8 secs   av.it.:  16.8
      thresh= 2.137E-07 alpha_mix =  0.700 |ddv_scf|^2 =  9.448E-14

     Pert. #  1: Fermi energy shift (Ry) =     8.0779E-28     0.0000E+00

      iter #   5 total cpu time : 20553.7 secs   av.it.:  16.2
      thresh= 3.074E-08 alpha_mix =  0.700 |ddv_scf|^2 =  1.715E-15

     Pert. #  1: Fermi energy shift (Ry) =    -2.6926E-28     0.0000E+00

      iter #   6 total cpu time : 20612.1 secs   av.it.:  16.1
      thresh= 4.141E-09 alpha_mix =  0.700 |ddv_scf|^2 =  3.559E-17

     End of self-consistent calculation

     Convergence has been achieved 


     Representation #  26 mode #  37

     Self-consistent Calculation

     Pert. #  1: Fermi energy shift (Ry) =     4.3082E-27    -1.1755E-38

      iter #   1 total cpu time : 20716.6 secs   av.it.:   7.0
      thresh= 1.000E-02 alpha_mix =  0.700 |ddv_scf|^2 =  1.721E-06

     Pert. #  1: Fermi energy shift (Ry) =    -3.4466E-26    -6.1224E-40

      iter #   2 total cpu time : 20776.0 secs   av.it.:  16.4
      thresh= 1.312E-04 alpha_mix =  0.700 |ddv_scf|^2 =  1.348E-03

     Pert. #  1: Fermi energy shift (Ry) =    -1.3786E-25    -1.5673E-38

      iter #   3 total cpu time : 20827.7 secs   av.it.:  10.7
      thresh= 3.672E-03 alpha_mix =  0.700 |ddv_scf|^2 =  7.452E-07

     Pert. #  1: Fermi energy shift (Ry) =    -5.3853E-28     9.7958E-40

      iter #   4 total cpu time : 20878.2 secs   av.it.:  14.2
      thresh= 8.633E-05 alpha_mix =  0.700 |ddv_scf|^2 =  3.618E-08

     Pert. #  1: Fermi energy shift (Ry) =     1.6156E-27     2.4489E-40

      iter #   5 total cpu time : 20960.7 secs   av.it.:  15.3
      thresh= 1.902E-05 alpha_mix =  0.700 |ddv_scf|^2 =  7.316E-09

     Pert. #  1: Fermi energy shift (Ry) =    -2.0195E-28    -6.1224E-41

      iter #   6 total cpu time : 21005.6 secs   av.it.:  14.1
      thresh= 8.553E-06 alpha_mix =  0.700 |ddv_scf|^2 =  2.349E-12

     Pert. #  1: Fermi energy shift (Ry) =    -5.0487E-29    -5.9789E-43

      iter #   7 total cpu time : 21057.5 secs   av.it.:  17.9
      thresh= 1.533E-07 alpha_mix =  0.700 |ddv_scf|^2 =  1.746E-13

     Pert. #  1: Fermi energy shift (Ry) =    -6.7316E-29    -1.7937E-43

      iter #   8 total cpu time : 21111.0 secs   av.it.:  17.8
      thresh= 4.179E-08 alpha_mix =  0.700 |ddv_scf|^2 =  4.063E-12

     Pert. #  1: Fermi energy shift (Ry) =    -6.7316E-29    -1.1958E-43

      iter #   9 total cpu time : 21156.9 secs   av.it.:  14.4
      thresh= 2.016E-07 alpha_mix =  0.700 |ddv_scf|^2 =  7.715E-14

     Pert. #  1: Fermi energy shift (Ry) =    -5.0487E-29     8.9683E-44

      iter #  10 total cpu time : 21204.1 secs   av.it.:  13.9
      thresh= 2.778E-08 alpha_mix =  0.700 |ddv_scf|^2 =  1.759E-14

     Pert. #  1: Fermi energy shift (Ry) =    -6.7316E-29     5.9789E-44

      iter #  11 total cpu time : 21250.7 secs   av.it.:  15.1
      thresh= 1.326E-08 alpha_mix =  0.700 |ddv_scf|^2 =  1.026E-15

     Pert. #  1: Fermi energy shift (Ry) =    -6.7316E-29     1.4947E-43

      iter #  12 total cpu time : 21300.9 secs   av.it.:  16.9
      thresh= 3.202E-09 alpha_mix =  0.700 |ddv_scf|^2 =  1.379E-15

     Pert. #  1: Fermi energy shift (Ry) =    -6.7316E-29     7.4736E-44

      iter #  13 total cpu time : 21348.2 secs   av.it.:  14.2
      thresh= 3.714E-09 alpha_mix =  0.700 |ddv_scf|^2 =  1.211E-16

     Pert. #  1: Fermi energy shift (Ry) =    -6.7316E-29     8.9683E-44

      iter #  14 total cpu time : 21399.2 secs   av.it.:  15.6
      thresh= 1.100E-09 alpha_mix =  0.700 |ddv_scf|^2 =  2.094E-17

     End of self-consistent calculation

     Convergence has been achieved 


     Representation #  27 mode #  38

     Self-consistent Calculation

     Pert. #  1: Fermi energy shift (Ry) =     1.6156E-27     2.9387E-39

      iter #   1 total cpu time : 21495.6 secs   av.it.:   6.8
      thresh= 1.000E-02 alpha_mix =  0.700 |ddv_scf|^2 =  1.057E-05

     Pert. #  1: Fermi energy shift (Ry) =    -6.4623E-27    -1.8367E-40

      iter #   2 total cpu time : 21549.6 secs   av.it.:  16.4
      thresh= 3.251E-04 alpha_mix =  0.700 |ddv_scf|^2 =  8.755E-03

     Pert. #  1: Fermi energy shift (Ry) =    -4.1359E-25    -1.4694E-39

      iter #   3 total cpu time : 21603.7 secs   av.it.:  10.7
      thresh= 9.357E-03 alpha_mix =  0.700 |ddv_scf|^2 =  2.391E-07

     Pert. #  1: Fermi energy shift (Ry) =     0.0000E+00    -5.7397E-42

      iter #   4 total cpu time : 21657.9 secs   av.it.:  14.8
      thresh= 4.890E-05 alpha_mix =  0.700 |ddv_scf|^2 =  2.719E-08

     Pert. #  1: Fermi energy shift (Ry) =     1.6156E-27    -1.1479E-41

      iter #   5 total cpu time : 21739.0 secs   av.it.:  15.4
      thresh= 1.649E-05 alpha_mix =  0.700 |ddv_scf|^2 =  1.212E-09

     Pert. #  1: Fermi energy shift (Ry) =     0.0000E+00     2.8699E-42

      iter #   6 total cpu time : 21785.5 secs   av.it.:  15.0
      thresh= 3.482E-06 alpha_mix =  0.700 |ddv_scf|^2 =  5.483E-10

     Pert. #  1: Fermi energy shift (Ry) =     0.0000E+00     1.4349E-42

      iter #   7 total cpu time : 21830.0 secs   av.it.:  12.9
      thresh= 2.342E-06 alpha_mix =  0.700 |ddv_scf|^2 =  2.993E-12

     Pert. #  1: Fermi energy shift (Ry) =     0.0000E+00     1.7937E-43

      iter #   8 total cpu time : 21877.2 secs   av.it.:  15.7
      thresh= 1.730E-07 alpha_mix =  0.700 |ddv_scf|^2 =  1.560E-12

     Pert. #  1: Fermi energy shift (Ry) =     0.0000E+00    -2.2421E-44

      iter #   9 total cpu time : 21924.4 secs   av.it.:  14.4
      thresh= 1.249E-07 alpha_mix =  0.700 |ddv_scf|^2 =  3.952E-14

     Pert. #  1: Fermi energy shift (Ry) =     0.0000E+00    -1.1210E-44

      iter #  10 total cpu time : 21967.4 secs   av.it.:  15.5
      thresh= 1.988E-08 alpha_mix =  0.700 |ddv_scf|^2 =  9.104E-16

     Pert. #  1: Fermi energy shift (Ry) =     0.0000E+00     7.0065E-46

      iter #  11 total cpu time : 22013.3 secs   av.it.:  16.9
      thresh= 3.017E-09 alpha_mix =  0.700 |ddv_scf|^2 =  5.817E-17

     End of self-consistent calculation

     Convergence has been achieved 


     Representation #  28 mode #  39

     Self-consistent Calculation

     Pert. #  1: Fermi energy shift (Ry) =     0.0000E+00     0.0000E+00

      iter #   1 total cpu time : 22115.7 secs   av.it.:   7.0
      thresh= 1.000E-02 alpha_mix =  0.700 |ddv_scf|^2 =  1.846E-05

     Pert. #  1: Fermi energy shift (Ry) =     0.0000E+00     0.0000E+00

      iter #   2 total cpu time : 22188.0 secs   av.it.:  16.4
      thresh= 4.297E-04 alpha_mix =  0.700 |ddv_scf|^2 =  1.515E-02

     Pert. #  1: Fermi energy shift (Ry) =     0.0000E+00     0.0000E+00

      iter #   3 total cpu time : 22246.4 secs   av.it.:  10.9
      thresh= 1.000E-02 alpha_mix =  0.700 |ddv_scf|^2 =  1.565E-06

     Pert. #  1: Fermi energy shift (Ry) =     0.0000E+00     0.0000E+00

      iter #   4 total cpu time : 22303.5 secs   av.it.:  12.4
      thresh= 1.251E-04 alpha_mix =  0.700 |ddv_scf|^2 =  8.242E-08

     Pert. #  1: Fermi energy shift (Ry) =     0.0000E+00     0.0000E+00

[...]
      thresh= 4.059E-08 alpha_mix =  0.700 |ddv_scf|^2 =  6.193E-15

      iter #  12 total cpu time :244865.4 secs   av.it.:  16.6
      thresh= 7.869E-09 alpha_mix =  0.700 |ddv_scf|^2 =  4.373E-15

      iter #  13 total cpu time :244950.4 secs   av.it.:  15.7
      thresh= 6.613E-09 alpha_mix =  0.700 |ddv_scf|^2 =  5.724E-16

      iter #  14 total cpu time :245036.2 secs   av.it.:  16.6
      thresh= 2.392E-09 alpha_mix =  0.700 |ddv_scf|^2 =  9.920E-16

      iter #  15 total cpu time :245104.4 secs   av.it.:  15.7
      thresh= 3.150E-09 alpha_mix =  0.700 |ddv_scf|^2 =  9.082E-17

     End of self-consistent calculation

     Convergence has been achieved 


     Representation #  65 mode #  65

     Self-consistent Calculation

      iter #   1 total cpu time :245199.2 secs   av.it.:   7.1
      thresh= 1.000E-02 alpha_mix =  0.700 |ddv_scf|^2 =  3.198E-06

      iter #   2 total cpu time :245287.9 secs   av.it.:  17.5
      thresh= 1.788E-04 alpha_mix =  0.700 |ddv_scf|^2 =  2.277E-03

      iter #   3 total cpu time :245363.6 secs   av.it.:  11.9
      thresh= 4.772E-03 alpha_mix =  0.700 |ddv_scf|^2 =  6.732E-07

      iter #   4 total cpu time :245451.6 secs   av.it.:  16.3
      thresh= 8.205E-05 alpha_mix =  0.700 |ddv_scf|^2 =  5.857E-06

      iter #   5 total cpu time :245533.0 secs   av.it.:  14.0
      thresh= 2.420E-04 alpha_mix =  0.700 |ddv_scf|^2 =  1.032E-07

      iter #   6 total cpu time :245619.8 secs   av.it.:  15.4
      thresh= 3.213E-05 alpha_mix =  0.700 |ddv_scf|^2 =  4.711E-10

      iter #   7 total cpu time :245704.2 secs   av.it.:  17.3
      thresh= 2.170E-06 alpha_mix =  0.700 |ddv_scf|^2 =  1.173E-09

      iter #   8 total cpu time :245781.7 secs   av.it.:  14.1
      thresh= 3.425E-06 alpha_mix =  0.700 |ddv_scf|^2 =  3.317E-11

      iter #   9 total cpu time :245863.8 secs   av.it.:  14.9
      thresh= 5.759E-07 alpha_mix =  0.700 |ddv_scf|^2 =  1.244E-12

      iter #  10 total cpu time :245943.8 secs   av.it.:  15.4
      thresh= 1.115E-07 alpha_mix =  0.700 |ddv_scf|^2 =  2.794E-13

      iter #  11 total cpu time :246024.7 secs   av.it.:  15.0
      thresh= 5.286E-08 alpha_mix =  0.700 |ddv_scf|^2 =  3.008E-14

      iter #  12 total cpu time :246105.3 secs   av.it.:  16.2
      thresh= 1.734E-08 alpha_mix =  0.700 |ddv_scf|^2 =  7.192E-15

      iter #  13 total cpu time :246192.9 secs   av.it.:  16.2
      thresh= 8.480E-09 alpha_mix =  0.700 |ddv_scf|^2 =  4.136E-15

      iter #  14 total cpu time :246274.9 secs   av.it.:  16.0
      thresh= 6.431E-09 alpha_mix =  0.700 |ddv_scf|^2 =  1.419E-15

      iter #  15 total cpu time :246356.4 secs   av.it.:  15.2
      thresh= 3.767E-09 alpha_mix =  0.700 |ddv_scf|^2 =  1.778E-16

      iter #  16 total cpu time :246442.4 secs   av.it.:  15.7
      thresh= 1.334E-09 alpha_mix =  0.700 |ddv_scf|^2 =  3.989E-16

      iter #  17 total cpu time :246518.6 secs   av.it.:  14.2
      thresh= 1.997E-09 alpha_mix =  0.700 |ddv_scf|^2 =  1.080E-17

     End of self-consistent calculation

     Convergence has been achieved 


     Representation #  66 mode #  66

     Self-consistent Calculation

      iter #   1 total cpu time :246644.9 secs   av.it.:   7.7
      thresh= 1.000E-02 alpha_mix =  0.700 |ddv_scf|^2 =  1.162E-05

      iter #   2 total cpu time :246732.9 secs   av.it.:  17.5
      thresh= 3.408E-04 alpha_mix =  0.700 |ddv_scf|^2 =  7.814E-03

      iter #   3 total cpu time :246815.0 secs   av.it.:  11.9
      thresh= 8.840E-03 alpha_mix =  0.700 |ddv_scf|^2 =  4.878E-06

      iter #   4 total cpu time :246890.1 secs   av.it.:  14.0
      thresh= 2.209E-04 alpha_mix =  0.700 |ddv_scf|^2 =  2.135E-06

      iter #   5 total cpu time :246970.8 secs   av.it.:  13.8
      thresh= 1.461E-04 alpha_mix =  0.700 |ddv_scf|^2 =  2.115E-07

      iter #   6 total cpu time :247056.9 secs   av.it.:  13.8
      thresh= 4.599E-05 alpha_mix =  0.700 |ddv_scf|^2 =  1.380E-09

      iter #   7 total cpu time :247150.1 secs   av.it.:  16.7
      thresh= 3.715E-06 alpha_mix =  0.700 |ddv_scf|^2 =  3.293E-10

      iter #   8 total cpu time :247237.2 secs   av.it.:  15.9
      thresh= 1.815E-06 alpha_mix =  0.700 |ddv_scf|^2 =  3.672E-11

      iter #   9 total cpu time :247320.3 secs   av.it.:  15.8
      thresh= 6.060E-07 alpha_mix =  0.700 |ddv_scf|^2 =  1.671E-12

      iter #  10 total cpu time :247400.8 secs   av.it.:  16.8
      thresh= 1.293E-07 alpha_mix =  0.700 |ddv_scf|^2 =  2.486E-13

      iter #  11 total cpu time :247483.1 secs   av.it.:  16.6
      thresh= 4.986E-08 alpha_mix =  0.700 |ddv_scf|^2 =  4.268E-15

      iter #  12 total cpu time :247568.1 secs   av.it.:  17.7
      thresh= 6.533E-09 alpha_mix =  0.700 |ddv_scf|^2 =  6.710E-15

      iter #  13 total cpu time :247649.3 secs   av.it.:  15.8
      thresh= 8.192E-09 alpha_mix =  0.700 |ddv_scf|^2 =  1.593E-15

      iter #  14 total cpu time :247729.8 secs   av.it.:  15.1
      thresh= 3.992E-09 alpha_mix =  0.700 |ddv_scf|^2 =  9.925E-17

     End of self-consistent calculation

     Convergence has been achieved 

     Number of q in the star =    3
     List of q in the star:
          1   0.288675135  -0.500000000  -0.202430016
          2   0.577350269   0.000000000   0.202430016
          3  -0.288675135  -0.500000000   0.202430016

     Diagonalizing the dynamical matrix

     q = (    0.288675135  -0.500000000  -0.202430016 ) 

 **************************************************************************
     freq (    1) =       1.792490 [THz] =      59.791019 [cm-1]
     freq (    2) =       1.862782 [THz] =      62.135708 [cm-1]
     freq (    3) =       1.883941 [THz] =      62.841506 [cm-1]
     freq (    4) =       2.019044 [THz] =      67.348048 [cm-1]
     freq (    5) =       2.272891 [THz] =      75.815483 [cm-1]
     freq (    6) =       2.412470 [THz] =      80.471332 [cm-1]
     freq (    7) =       2.693543 [THz] =      89.846930 [cm-1]
     freq (    8) =       2.869297 [THz] =      95.709436 [cm-1]
     freq (    9) =       3.574324 [THz] =     119.226628 [cm-1]
     freq (   10) =       3.695160 [THz] =     123.257286 [cm-1]
     freq (   11) =       3.771585 [THz] =     125.806542 [cm-1]
     freq (   12) =       3.974791 [THz] =     132.584745 [cm-1]
     freq (   13) =       4.433975 [THz] =     147.901477 [cm-1]
     freq (   14) =       4.758060 [THz] =     158.711797 [cm-1]
     freq (   15) =       5.042415 [THz] =     168.196850 [cm-1]
     freq (   16) =       5.145755 [THz] =     171.643910 [cm-1]
     freq (   17) =       5.447191 [THz] =     181.698721 [cm-1]
     freq (   18) =       5.449947 [THz] =     181.790674 [cm-1]
     freq (   19) =       5.879900 [THz] =     196.132340 [cm-1]
     freq (   20) =       6.188551 [THz] =     206.427849 [cm-1]
     freq (   21) =       6.383964 [THz] =     212.946114 [cm-1]
     freq (   22) =       6.577292 [THz] =     219.394832 [cm-1]
     freq (   23) =       6.660547 [THz] =     222.171941 [cm-1]
     freq (   24) =       6.923786 [THz] =     230.952633 [cm-1]
     freq (   25) =       7.080085 [THz] =     236.166218 [cm-1]
     freq (   26) =       7.116679 [THz] =     237.386863 [cm-1]
     freq (   27) =       7.580245 [THz] =     252.849754 [cm-1]
     freq (   28) =       7.580705 [THz] =     252.865088 [cm-1]
     freq (   29) =       8.805940 [THz] =     293.734526 [cm-1]
     freq (   30) =       8.868892 [THz] =     295.834381 [cm-1]
     freq (   31) =       8.997277 [THz] =     300.116859 [cm-1]
     freq (   32) =       9.011151 [THz] =     300.579657 [cm-1]
     freq (   33) =       9.368918 [THz] =     312.513482 [cm-1]
     freq (   34) =       9.439573 [THz] =     314.870247 [cm-1]
     freq (   35) =       9.483802 [THz] =     316.345584 [cm-1]
     freq (   36) =       9.642841 [THz] =     321.650559 [cm-1]
     freq (   37) =       9.661584 [THz] =     322.275747 [cm-1]
     freq (   38) =       9.663447 [THz] =     322.337885 [cm-1]
     freq (   39) =       9.846495 [THz] =     328.443730 [cm-1]
     freq (   40) =      10.203596 [THz] =     340.355329 [cm-1]
     freq (   41) =      10.215189 [THz] =     340.742031 [cm-1]
     freq (   42) =      10.290344 [THz] =     343.248914 [cm-1]
     freq (   43) =      10.339532 [THz] =     344.889655 [cm-1]
     freq (   44) =      10.477273 [THz] =     349.484203 [cm-1]
     freq (   45) =      10.485960 [THz] =     349.773977 [cm-1]
     freq (   46) =      10.509934 [THz] =     350.573663 [cm-1]
     freq (   47) =      10.695962 [THz] =     356.778875 [cm-1]
     freq (   48) =      10.701129 [THz] =     356.951245 [cm-1]
     freq (   49) =      11.110664 [THz] =     370.611849 [cm-1]
     freq (   50) =      11.197850 [THz] =     373.520079 [cm-1]
     freq (   51) =      11.640344 [THz] =     388.280092 [cm-1]
     freq (   52) =      11.822760 [THz] =     394.364810 [cm-1]
     freq (   53) =      12.195101 [THz] =     406.784791 [cm-1]
     freq (   54) =      12.280296 [THz] =     409.626593 [cm-1]
     freq (   55) =      12.426259 [THz] =     414.495390 [cm-1]
     freq (   56) =      12.648988 [THz] =     421.924815 [cm-1]
     freq (   57) =      12.998783 [THz] =     433.592724 [cm-1]
     freq (   58) =      13.299618 [THz] =     443.627503 [cm-1]
     freq (   59) =      14.991390 [THz] =     500.058940 [cm-1]
     freq (   60) =      15.281160 [THz] =     509.724645 [cm-1]
     freq (   61) =      15.553815 [THz] =     518.819416 [cm-1]
     freq (   62) =      15.962386 [THz] =     532.447868 [cm-1]
     freq (   63) =      16.008517 [THz] =     533.986660 [cm-1]
     freq (   64) =      16.239038 [THz] =     541.676017 [cm-1]
     freq (   65) =      16.838419 [THz] =     561.669215 [cm-1]
     freq (   66) =      16.914504 [THz] =     564.207135 [cm-1]
 **************************************************************************

     Mode symmetry, C_2h (2/m)  point group:

     freq (   1-   1) =         59.8  [cm-1]   --> B_g                
     freq (   2-   2) =         62.1  [cm-1]   --> B_u                
     freq (   3-   3) =         62.8  [cm-1]   --> A_u                
     freq (   4-   4) =         67.3  [cm-1]   --> A_g                
     freq (   5-   5) =         75.8  [cm-1]   --> B_u                
     freq (   6-   6) =         80.5  [cm-1]   --> A_g                
     freq (   7-   7) =         89.8  [cm-1]   --> A_u                
     freq (   8-   8) =         95.7  [cm-1]   --> B_g                
     freq (   9-   9) =        119.2  [cm-1]   --> A_g                
     freq (  10-  10) =        123.3  [cm-1]   --> B_u                
     freq (  11-  11) =        125.8  [cm-1]   --> A_u                
     freq (  12-  12) =        132.6  [cm-1]   --> B_g                
     freq (  13-  13) =        147.9  [cm-1]   --> B_u                
     freq (  14-  14) =        158.7  [cm-1]   --> A_g                
     freq (  15-  15) =        168.2  [cm-1]   --> B_u                
     freq (  16-  16) =        171.6  [cm-1]   --> B_g                
     freq (  17-  17) =        181.7  [cm-1]   --> A_u                
     freq (  18-  18) =        181.8  [cm-1]   --> B_g                
     freq (  19-  19) =        196.1  [cm-1]   --> A_g                
     freq (  20-  20) =        206.4  [cm-1]   --> A_u                
     freq (  21-  21) =        212.9  [cm-1]   --> A_g                
     freq (  22-  22) =        219.4  [cm-1]   --> B_u                
     freq (  23-  23) =        222.2  [cm-1]   --> A_g                
     freq (  24-  24) =        231.0  [cm-1]   --> B_u                
     freq (  25-  25) =        236.2  [cm-1]   --> B_g                
     freq (  26-  26) =        237.4  [cm-1]   --> A_u                
     freq (  27-  27) =        252.8  [cm-1]   --> A_g                
     freq (  28-  28) =        252.9  [cm-1]   --> B_u                
     freq (  29-  29) =        293.7  [cm-1]   --> B_u                
     freq (  30-  30) =        295.8  [cm-1]   --> A_g                
     freq (  31-  31) =        300.1  [cm-1]   --> A_u                
     freq (  32-  32) =        300.6  [cm-1]   --> B_g                
     freq (  33-  33) =        312.5  [cm-1]   --> A_g                
     freq (  34-  34) =        314.9  [cm-1]   --> B_u                
     freq (  35-  35) =        316.3  [cm-1]   --> A_u                
     freq (  36-  36) =        321.7  [cm-1]   --> B_u                
     freq (  37-  37) =        322.3  [cm-1]   --> A_g                
     freq (  38-  38) =        322.3  [cm-1]   --> B_g                
     freq (  39-  39) =        328.4  [cm-1]   --> B_g                
     freq (  40-  40) =        340.4  [cm-1]   --> B_u                
     freq (  41-  41) =        340.7  [cm-1]   --> A_u                
     freq (  42-  42) =        343.2  [cm-1]   --> A_g                
     freq (  43-  43) =        344.9  [cm-1]   --> B_u                
     freq (  44-  44) =        349.5  [cm-1]   --> B_g                
     freq (  45-  45) =        349.8  [cm-1]   --> A_u                
     freq (  46-  46) =        350.6  [cm-1]   --> A_g                
     freq (  47-  47) =        356.8  [cm-1]   --> A_u                
     freq (  48-  48) =        357.0  [cm-1]   --> B_g                
     freq (  49-  49) =        370.6  [cm-1]   --> B_g                
     freq (  50-  50) =        373.5  [cm-1]   --> A_u                
     freq (  51-  51) =        388.3  [cm-1]   --> B_u                
     freq (  52-  52) =        394.4  [cm-1]   --> A_g                
     freq (  53-  53) =        406.8  [cm-1]   --> B_u                
     freq (  54-  54) =        409.6  [cm-1]   --> A_g                
     freq (  55-  55) =        414.5  [cm-1]   --> B_g                
     freq (  56-  56) =        421.9  [cm-1]   --> A_u                
     freq (  57-  57) =        433.6  [cm-1]   --> B_u                
     freq (  58-  58) =        443.6  [cm-1]   --> A_g                
     freq (  59-  59) =        500.1  [cm-1]   --> B_u                
     freq (  60-  60) =        509.7  [cm-1]   --> A_g                
     freq (  61-  61) =        518.8  [cm-1]   --> B_g                
     freq (  62-  62) =        532.4  [cm-1]   --> A_u                
     freq (  63-  63) =        534.0  [cm-1]   --> B_u                
     freq (  64-  64) =        541.7  [cm-1]   --> A_g                
     freq (  65-  65) =        561.7  [cm-1]   --> B_u                
     freq (  66-  66) =        564.2  [cm-1]   --> A_g                

     init_run     :      0.73s CPU    120.35s WALL (       3 calls)
     electrons    :   2046.00s CPU   2120.99s WALL (       3 calls)

     Called by init_run:
     wfcinit      :      0.00s CPU    117.53s WALL (       3 calls)
     potinit      :      0.35s CPU      2.35s WALL (       3 calls)
     hinit0       :      0.05s CPU      0.06s WALL (       3 calls)

     Called by electrons:
     c_bands      :   2045.98s CPU   2120.82s WALL (       3 calls)
     v_of_rho     :      0.45s CPU      0.50s WALL (       4 calls)

     Called by c_bands:
     init_us_2    :     10.27s CPU     14.80s WALL (   16308 calls)
     ccgdiagg     :   1897.59s CPU   1944.59s WALL (     176 calls)
     wfcrot       :     77.56s CPU     79.30s WALL (     176 calls)

     Called by *cgdiagg:
     h_psi        :  83099.62s CPU  84516.58s WALL (  693036 calls)

     Called by h_psi:
     h_psi:calbec :   2762.10s CPU   2813.82s WALL (  693036 calls)
     vloc_psi     :  78229.69s CPU  79561.18s WALL (  693036 calls)
     add_vuspsi   :   1793.87s CPU   1822.81s WALL (  693036 calls)
     hs_1psi      :   1658.91s CPU   1700.14s WALL (  215290 calls)
     s_1psi       :     91.15s CPU     92.92s WALL (  215290 calls)

     General routines
     calbec       :   5156.44s CPU   5243.55s WALL ( 1390960 calls)
     fft          :    285.75s CPU    296.75s WALL (   37579 calls)
     ffts         :   1931.79s CPU   1952.03s WALL (   28116 calls)
     fftw         : 102209.50s CPU 103742.33s WALL (50397296 calls)
     davcio       :     18.69s CPU  38290.97s WALL (  102410 calls)

     Parallel routines

     PHONON       : 195476.21s CPU 247753.64s WALL

     INITIALIZATION: 
     phq_setup    :      1.01s CPU     10.80s WALL (       4 calls)
     phq_init     :     59.40s CPU     72.54s WALL (       4 calls)

     phq_init     :     59.40s CPU     72.54s WALL (       4 calls)
     init_vloc    :      0.05s CPU      0.06s WALL (       4 calls)
     init_us_1    :      0.00s CPU      0.00s WALL (       4 calls)
     init_us_2    :     10.27s CPU     14.80s WALL (   16308 calls)

     DYNAMICAL MATRIX:
     dynmat0      :     55.88s CPU     66.86s WALL (       4 calls)
     dynmat_us    :     20.50s CPU     20.69s WALL (       4 calls)
     d2ionq       :      0.45s CPU      0.45s WALL (       4 calls)
     phqscf       : 193313.00s CPU 245121.18s WALL (       4 calls)
     dynmatrix    :      8.67s CPU     11.50s WALL (       4 calls)

     phqscf       : 193313.00s CPU 245121.18s WALL (       4 calls)
     solve_linter : 192763.70s CPU 243728.96s WALL (     220 calls)
     sth_kernel   : 156064.24s CPU 186253.20s WALL (    2826 calls)
     h_prec       :  12600.58s CPU  12699.01s WALL (   13998 calls)
     apply_dpot_b :  17553.18s CPU  17742.86s WALL (   14187 calls)
     ortho        :   1303.64s CPU   1315.72s WALL (   15375 calls)
     cgsolve      :  87606.35s CPU  89091.23s WALL (   15375 calls)
     incdrhoscf   :  24733.29s CPU  25062.68s WALL (   15375 calls)
                                        0.00s GPU  (   15375 calls)
     dv_of_drho   :    464.72s CPU    487.33s WALL (    3285 calls)
     mix_pot      :   7267.20s CPU  18712.87s WALL (    2826 calls)
     ef_shift     :      6.91s CPU      8.57s WALL (     465 calls)
     ef_shift_wfc :      0.05s CPU     79.60s WALL (      44 calls)
     localdos     :    201.32s CPU    219.97s WALL (      44 calls)
     drhodv       :    544.05s CPU    711.64s WALL (     220 calls)
     psymdvscf    :   4568.16s CPU   4930.27s WALL (    2826 calls)

     dvqpsi_us    :   2405.54s CPU   2429.52s WALL (    1188 calls)
                                        0.00s GPU  (    1188 calls)
     dvqpsi_us_on :     23.64s CPU     24.17s WALL (    1188 calls)

     add_vuspsi   :   1793.87s CPU   1822.81s WALL (  693036 calls)


      General routines
     calbec       :   5156.44s CPU   5243.55s WALL ( 1390960 calls)
     fft          :    285.75s CPU    296.75s WALL (   37579 calls)
     ffts         :   1931.79s CPU   1952.03s WALL (   28116 calls)
     fftw         : 102209.50s CPU 103742.33s WALL (50397296 calls)
     davcio       :     18.69s CPU  38290.97s WALL (  102410 calls)
     write_rec    :     19.17s CPU   7669.92s WALL (    3046 calls)

      Additional routines
     ch_psi       :  86217.19s CPU  87674.57s WALL (  477570 calls)
     last         :   4151.68s CPU   4219.00s WALL (  477570 calls)
     Hesh         :    242.02s CPU    247.21s WALL (  477570 calls)
     ch_psi_all_k :   3906.53s CPU   3969.38s WALL (  477570 calls)
                                        0.00s GPU  (  477570 calls)
     ch_psi_calbe :   1897.51s CPU   1924.17s WALL (  477570 calls)
                                        0.00s GPU  (  477570 calls)
     h_psi_bgrp   :  83101.42s CPU  84517.85s WALL (  693036 calls)
     h_psi        :  83099.62s CPU  84516.58s WALL (  693036 calls)
     h_psi:pot    :  82792.14s CPU  84202.26s WALL (  693036 calls)
     h_psi:calbec :   2762.10s CPU   2813.82s WALL (  693036 calls)
     s_psi_bgrp   :    439.29s CPU    451.44s WALL ( 1401095 calls)


     PHONON       : 195476.21s CPU 247753.65s WALL


   This run was terminated on:  14: 2:41  24May2025            

=------------------------------------------------------------------------------=
   JOB DONE.
=------------------------------------------------------------------------------=
