
     Program PWSCF v.7.3.1 starts on 21May2025 at 17: 9:45 

     This program is part of the open-source Quantum ESPRESSO suite
     for quantum simulation of materials; please cite
         "P. Giannozzi et al., J. Phys.:Condens. Matter 21 395502 (2009);
         "P. Giannozzi et al., J. Phys.:Condens. Matter 29 465901 (2017);
         "P. Giannozzi et al., J. Chem. Phys. 152 154105 (2020);
          URL http://www.quantum-espresso.org", 
     in publications or presentations arising from this work. More details at
     http://www.quantum-espresso.org/quote

     Parallel version (MPI & OpenMP), running on     384 processor cores
     Number of MPI processes:               384
     Threads/MPI process:                     1

     MPI processes distributed on     2 nodes
     345723 MiB available memory on the printing compute node when the environment starts

     Waiting for input...
     Reading input from standard input
Warning: card &CELL ignored
Warning: card / ignored
Warning: card &FCP ignored
Warning: card / ignored
Warning: card &RISM ignored
Warning: card / ignored

     Current dimensions of program PWSCF are:
     Max number of different atomic species (ntypx) = 10
     Max number of k-points (npk) =  40000
     Max angular momentum in pseudopotentials (lmaxx) =  4

     IMPORTANT: XC functional enforced from input :
     Exchange-correlation= PBE
                           (   1   4   3   4   0   0   0)
     Any further DFT definition will be discarded
     Please, verify this is what you really want

     Message from routine setup:
     using ibrav=0 with symmetry is DISCOURAGED, use correct ibrav instead

     K-points division:     npool     =      12
     R & G space division:  proc/nbgrp/npool/nimage =      32
     Subspace diagonalization in iterative solution of the eigenvalue problem:
     a serial algorithm will be used


     Parallelization info
     --------------------
     sticks:   dense  smooth     PW     G-vecs:    dense   smooth      PW
     Min         107     107     28                 8355     8355    1162
     Max         108     108     29                 8364     8364    1171
     Sum        3427    3427    925               267435   267435   37405

     Using Slab Decomposition



     bravais-lattice index     =            0
     lattice parameter (alat)  =      11.1557  a.u.
     unit-cell volume          =    1979.8333 (a.u.)^3
     number of atoms/cell      =           22
     number of atomic types    =            2
     number of electrons       =       190.00
     number of Kohn-Sham states=          114
     kinetic-energy cutoff     =     100.0000  Ry
     charge density cutoff     =     400.0000  Ry
     scf convergence threshold =      1.0E-12
     mixing beta               =       0.7000
     number of iterations used =            8  plain     mixing
     Exchange-correlation= PBE
                           (   1   4   3   4   0   0   0)

     celldm(1)=  11.155732  celldm(2)=   0.000000  celldm(3)=   0.000000
     celldm(4)=   0.000000  celldm(5)=   0.000000  celldm(6)=   0.000000

     crystal axes: (cart. coord. in units of alat)
               a(1) = (   0.866025   0.500000   0.000000 )  
               a(2) = (  -0.866025   0.500000   0.000000 )  
               a(3) = (  -0.577350   0.000000   1.646660 )  

     reciprocal axes: (cart. coord. in units 2 pi/alat)
               b(1) = (  0.577350  1.000000  0.202430 )  
               b(2) = ( -0.577350  1.000000 -0.202430 )  
               b(3) = (  0.000000 -0.000000  0.607290 )  


     PseudoPot. # 1 for Nb read from file:
     ./pp/Nb_ONCV_PBE-1.2.upf
     MD5 check sum: 2c750ac0b6910ff4cf0ab5f6c4124a64
     Pseudo is Norm-conserving, Zval = 13.0
     Generated using ONCVPSP code by D. R. Hamann
     Using radial grid of  602 points,  6 beta functions with: 
                l(1) =   0
                l(2) =   0
                l(3) =   1
                l(4) =   1
                l(5) =   2
                l(6) =   2

     PseudoPot. # 2 for F  read from file:
     ./pp/F_ONCV_PBE-1.2.upf
     MD5 check sum: 1d8275f47d602dd53cad6bcdc0eda7dc
     Pseudo is Norm-conserving, Zval =  7.0
     Generated using ONCVPSP code by D. R. Hamann
     Using radial grid of  602 points,  4 beta functions with: 
                l(1) =   0
                l(2) =   0
                l(3) =   1
                l(4) =   1

     atomic species   valence    mass     pseudopotential
     Nb               13.00    92.90637     Nb( 1.00)
     F                 7.00    18.99840     F ( 1.00)

     12 Sym. Ops., with inversion, found


                                    s                        frac. trans.

      isym =  1     identity                                     

 cryst.   s( 1) = (     1          0          0      )
                  (     0          1          0      )
                  (     0          0          1      )

 cart.    s( 1) = (  1.0000000 -0.0000000 -0.0000000 )
                  ( -0.0000000  1.0000000  0.0000000 )
                  (  0.0000000  0.0000000  1.0000000 )


      isym =  2     180 deg rotation - cart. axis [0,1,0]        

 cryst.   s( 2) = (     0          1          0      )
                  (     1          0          0      )
                  (     0          0         -1      )

 cart.    s( 2) = ( -1.0000000 -0.0000000  0.0000000 )
                  (  0.0000000  1.0000000 -0.0000000 )
                  (  0.0000000  0.0000000 -1.0000000 )


      isym =  3     120 deg rotation - cryst. axis [0,0,1]       

 cryst.   s( 3) = (     0          1          0      )
                  (    -1         -1          0      )
                  (     0         -1          1      )

 cart.    s( 3) = ( -0.5000000 -0.8660254 -0.0000000 )
                  (  0.8660254 -0.5000000  0.0000000 )
                  (  0.0000000  0.0000000  1.0000000 )


      isym =  4     120 deg rotation - cryst. axis [0,0,-1]      

 cryst.   s( 4) = (    -1         -1          0      )
                  (     1          0          0      )
                  (     1          0          1      )

 cart.    s( 4) = ( -0.5000000  0.8660254 -0.0000000 )
                  ( -0.8660254 -0.5000000 -0.0000000 )
                  (  0.0000000  0.0000000  1.0000000 )


      isym =  5     180 deg rotation - cryst. axis [1,-1,0]      

 cryst.   s( 5) = (    -1         -1          0      )
                  (     0          1          0      )
                  (     0          1         -1      )

 cart.    s( 5) = (  0.5000000 -0.8660254  0.0000000 )
                  ( -0.8660254 -0.5000000 -0.0000000 )
                  (  0.0000000  0.0000000 -1.0000000 )


      isym =  6     180 deg rotation - cryst. axis [2,1,0]       

 cryst.   s( 6) = (     1          0          0      )
                  (    -1         -1          0      )
                  (    -1          0         -1      )

 cart.    s( 6) = (  0.5000000  0.8660254  0.0000000 )
                  (  0.8660254 -0.5000000  0.0000000 )
                  (  0.0000000  0.0000000 -1.0000000 )


      isym =  7     inversion                                    

 cryst.   s( 7) = (    -1          0          0      )
                  (     0         -1          0      )
                  (     0          0         -1      )

 cart.    s( 7) = ( -1.0000000  0.0000000  0.0000000 )
                  (  0.0000000 -1.0000000 -0.0000000 )
                  (  0.0000000  0.0000000 -1.0000000 )


      isym =  8     inv. 180 deg rotation - cart. axis [0,1,0]   

 cryst.   s( 8) = (     0         -1          0      )
                  (    -1          0          0      )
                  (     0          0          1      )

 cart.    s( 8) = (  1.0000000  0.0000000 -0.0000000 )
                  ( -0.0000000 -1.0000000  0.0000000 )
                  (  0.0000000  0.0000000  1.0000000 )


      isym =  9     inv. 120 deg rotation - cryst. axis [0,0,1]  

 cryst.   s( 9) = (     0         -1          0      )
                  (     1          1          0      )
                  (     0          1         -1      )

 cart.    s( 9) = (  0.5000000  0.8660254  0.0000000 )
                  ( -0.8660254  0.5000000 -0.0000000 )
                  (  0.0000000  0.0000000 -1.0000000 )


      isym = 10     inv. 120 deg rotation - cryst. axis [0,0,-1] 

 cryst.   s(10) = (     1          1          0      )
                  (    -1          0          0      )
                  (    -1          0         -1      )

 cart.    s(10) = (  0.5000000 -0.8660254  0.0000000 )
                  (  0.8660254  0.5000000  0.0000000 )
                  (  0.0000000  0.0000000 -1.0000000 )


      isym = 11     inv. 180 deg rotation - cryst. axis [1,-1,0] 

 cryst.   s(11) = (     1          1          0      )
                  (     0         -1          0      )
                  (     0         -1          1      )

 cart.    s(11) = ( -0.5000000  0.8660254 -0.0000000 )
                  (  0.8660254  0.5000000  0.0000000 )
                  (  0.0000000  0.0000000  1.0000000 )


      isym = 12     inv. 180 deg rotation - cryst. axis [2,1,0]  

 cryst.   s(12) = (    -1          0          0      )
                  (     1          1          0      )
                  (     1          0          1      )

 cart.    s(12) = ( -0.5000000 -0.8660254 -0.0000000 )
                  ( -0.8660254  0.5000000 -0.0000000 )
                  (  0.0000000  0.0000000  1.0000000 )


   Cartesian axes

     site n.     atom                  positions (alat units)
         1        Nb     tau(   1) = (   0.2522031   0.0000000  -0.4116587  )
         2        Nb     tau(   2) = (  -0.1261016   0.2184143  -0.4116587  )
         3        Nb     tau(   3) = (  -0.1261016  -0.2184143  -0.4116587  )
         4        Nb     tau(   4) = (  -0.2522031  -0.0000000   0.4116587  )
         5        Nb     tau(   5) = (   0.1261016  -0.2184143   0.4116587  )
         6        Nb     tau(   6) = (   0.1261016   0.2184143   0.4116587  )
         7        F      tau(   7) = (   0.0000000   0.0000000  -0.6755959  )
         8        F      tau(   8) = (   0.8569726   0.0000000  -0.5958059  )
         9        F      tau(   9) = (   0.4375391   0.2421601  -0.5958059  )
        10        F      tau(  10) = (   0.4375391  -0.2421601  -0.5958059  )
        11        F      tau(  11) = (   0.5773503  -0.0000000  -0.2213055  )
        12        F      tau(  12) = (  -0.2835895   0.0000000  -0.1869662  )
        13        F      tau(  13) = (   0.1417947  -0.2455957  -0.1869662  )
        14        F      tau(  14) = (   0.1417948   0.2455957  -0.1869662  )
        15        F      tau(  15) = (   0.2835895  -0.0000000   0.1869662  )
        16        F      tau(  16) = (  -0.1417947   0.2455957   0.1869662  )
        17        F      tau(  17) = (  -0.1417948  -0.2455957   0.1869662  )
        18        F      tau(  18) = (  -0.5773503   0.0000000   0.2213055  )
        19        F      tau(  19) = (  -0.8569726  -0.0000000   0.5958059  )
        20        F      tau(  20) = (  -0.4375391  -0.2421601   0.5958059  )
        21        F      tau(  21) = (  -0.4375391   0.2421601   0.5958059  )
        22        F      tau(  22) = (  -0.0000000  -0.0000000   0.6755959  )

     --------------------------------------------
     DFT-D3 Dispersion Correction (no 3-body):
     --------------------------------------------
       Reference C6 values for interpolation: 

         atom   Coordination number   C6
         F          0.000            19.38
         F          0.998            14.27
         Nb         0.000          2950.50
         Nb         1.954          1161.16
         Nb         2.922           857.79

       Values used:

         atom   Coordination number  R0_AB[au]  C6      C8
         Nb         9.493            3.647    857.79 111659.18
         Nb         9.493            3.647    857.79 111659.18
         Nb         9.493            3.647    857.79 111659.18
         Nb         9.493            3.647    857.79 111659.18
         Nb         9.493            3.647    857.79 111659.18
         Nb         9.493            3.647    857.79 111659.18
         F          2.947            2.173     14.27    244.15
         F          2.035            2.173     14.27    244.15
         F          2.035            2.173     14.27    244.15
         F          2.035            2.173     14.27    244.15
         F          2.863            2.173     14.27    244.15
         F          2.050            2.173     14.27    244.15
         F          2.050            2.173     14.27    244.15
         F          2.050            2.173     14.27    244.15
         F          2.050            2.173     14.27    244.15
         F          2.050            2.173     14.27    244.15
         F          2.050            2.173     14.27    244.15
         F          2.863            2.173     14.27    244.15
         F          2.035            2.173     14.27    244.15
         F          2.035            2.173     14.27    244.15
         F          2.035            2.173     14.27    244.15
         F          2.947            2.173     14.27    244.15

         Molecular C6 ( Ry / a.u.^6 ) =     52655.74


   Crystallographic axes

     site n.     atom                  positions (cryst. coord.)
         1        Nb     tau(   1) = (  0.0622775 -0.0622774 -0.2499963  )
         2        Nb     tau(   2) = (  0.0622774  0.3745512 -0.2499963  )
         3        Nb     tau(   3) = ( -0.3745512 -0.0622775 -0.2499963  )
         4        Nb     tau(   4) = ( -0.0622775  0.0622774  0.2499963  )
         5        Nb     tau(   5) = ( -0.0622774 -0.3745512  0.2499963  )
         6        Nb     tau(   6) = (  0.3745512  0.0622775  0.2499963  )
         7        F      tau(   7) = ( -0.1367609  0.1367609 -0.4102826  )
         8        F      tau(   8) = (  0.3741644 -0.3741644 -0.3618270  )
         9        F      tau(   9) = (  0.3741644  0.1101558 -0.3618270  )
        10        F      tau(  10) = ( -0.1101558 -0.3741644 -0.3618270  )
        11        F      tau(  11) = (  0.2885345 -0.2885345 -0.1343966  )
        12        F      tau(  12) = ( -0.2015780  0.2015780 -0.1135427  )
        13        F      tau(  13) = ( -0.2015780 -0.2896134 -0.1135427  )
        14        F      tau(  14) = (  0.2896134  0.2015780 -0.1135427  )
        15        F      tau(  15) = (  0.2015780 -0.2015780  0.1135427  )
        16        F      tau(  16) = (  0.2015780  0.2896134  0.1135427  )
        17        F      tau(  17) = ( -0.2896134 -0.2015780  0.1135427  )
        18        F      tau(  18) = ( -0.2885345  0.2885345  0.1343966  )
        19        F      tau(  19) = ( -0.3741644  0.3741644  0.3618270  )
        20        F      tau(  20) = ( -0.3741644 -0.1101558  0.3618270  )
        21        F      tau(  21) = (  0.1101558  0.3741644  0.3618270  )
        22        F      tau(  22) = (  0.1367609 -0.1367609  0.4102826  )

     number of k points=    32  Gaussian smearing, width (Ry)=  0.0037
                       cart. coord. in units 2pi/alat
        k(    1) = (   0.0000000   0.0000000   0.0000000), wk =   0.0092593
        k(    2) = (   0.0000000   0.0000000   0.1012150), wk =   0.0185185
        k(    3) = (   0.0000000   0.0000000   0.2024300), wk =   0.0185185
        k(    4) = (   0.0000000   0.0000000  -0.3036450), wk =   0.0092593
        k(    5) = (  -0.0962250   0.1666667  -0.0337383), wk =   0.0555556
        k(    6) = (  -0.0962250   0.1666667   0.0674767), wk =   0.0555556
        k(    7) = (  -0.0962250   0.1666667   0.1686917), wk =   0.0555556
        k(    8) = (  -0.0962250   0.1666667  -0.3373834), wk =   0.0555556
        k(    9) = (  -0.0962250   0.1666667  -0.2361684), wk =   0.0555556
        k(   10) = (  -0.0962250   0.1666667  -0.1349533), wk =   0.0555556
        k(   11) = (  -0.1924501   0.3333333  -0.0674767), wk =   0.0555556
        k(   12) = (  -0.1924501   0.3333333   0.0337383), wk =   0.0555556
        k(   13) = (  -0.1924501   0.3333333   0.1349533), wk =   0.0555556
        k(   14) = (  -0.1924501   0.3333333  -0.3711217), wk =   0.0555556
        k(   15) = (  -0.1924501   0.3333333  -0.2699067), wk =   0.0555556
        k(   16) = (  -0.1924501   0.3333333  -0.1686917), wk =   0.0555556
        k(   17) = (   0.2886751  -0.5000000   0.1012150), wk =   0.0277778
        k(   18) = (   0.2886751  -0.5000000   0.2024300), wk =   0.0555556
        k(   19) = (   0.2886751  -0.5000000   0.3036450), wk =   0.0555556
        k(   20) = (   0.2886751  -0.5000000  -0.2024300), wk =   0.0277778
        k(   21) = (   0.0000000   0.3333333   0.0000000), wk =   0.0555556
        k(   22) = (   0.0000000   0.3333333   0.1012150), wk =   0.1111111
        k(   23) = (   0.0000000   0.3333333   0.2024300), wk =   0.1111111
        k(   24) = (   0.0000000   0.3333333  -0.3036450), wk =   0.0555556
        k(   25) = (  -0.0962250   0.5000000  -0.0337383), wk =   0.1111111
        k(   26) = (  -0.0962250   0.5000000   0.0674767), wk =   0.1111111
        k(   27) = (  -0.0962250   0.5000000   0.1686917), wk =   0.1111111
        k(   28) = (  -0.0962250   0.5000000  -0.3373834), wk =   0.1111111
        k(   29) = (  -0.0962250   0.5000000  -0.2361684), wk =   0.1111111
        k(   30) = (  -0.0962250   0.5000000  -0.1349533), wk =   0.1111111
        k(   31) = (   0.0000000   0.6666667   0.0000000), wk =   0.0555556
        k(   32) = (   0.0000000   0.6666667   0.1012150), wk =   0.0555556

                       cryst. coord.
        k(    1) = (   0.0000000   0.0000000   0.0000000), wk =   0.0092593
        k(    2) = (   0.0000000   0.0000000   0.1666667), wk =   0.0185185
        k(    3) = (   0.0000000   0.0000000   0.3333333), wk =   0.0185185
        k(    4) = (   0.0000000   0.0000000  -0.5000000), wk =   0.0092593
        k(    5) = (  -0.0000000   0.1666667   0.0000000), wk =   0.0555556
        k(    6) = (  -0.0000000   0.1666667   0.1666667), wk =   0.0555556
        k(    7) = (  -0.0000000   0.1666667   0.3333333), wk =   0.0555556
        k(    8) = (  -0.0000000   0.1666667  -0.5000000), wk =   0.0555556
        k(    9) = (  -0.0000000   0.1666667  -0.3333333), wk =   0.0555556
        k(   10) = (  -0.0000000   0.1666667  -0.1666667), wk =   0.0555556
        k(   11) = (  -0.0000000   0.3333333   0.0000000), wk =   0.0555556
        k(   12) = (  -0.0000000   0.3333333   0.1666667), wk =   0.0555556
        k(   13) = (  -0.0000000   0.3333333   0.3333333), wk =   0.0555556
        k(   14) = (  -0.0000000   0.3333333  -0.5000000), wk =   0.0555556
        k(   15) = (  -0.0000000   0.3333333  -0.3333333), wk =   0.0555556
        k(   16) = (  -0.0000000   0.3333333  -0.1666667), wk =   0.0555556
        k(   17) = (   0.0000000  -0.5000000  -0.0000000), wk =   0.0277778
        k(   18) = (   0.0000000  -0.5000000   0.1666667), wk =   0.0555556
        k(   19) = (   0.0000000  -0.5000000   0.3333333), wk =   0.0555556
        k(   20) = (   0.0000000  -0.5000000  -0.5000000), wk =   0.0277778
        k(   21) = (   0.1666667   0.1666667   0.0000000), wk =   0.0555556
        k(   22) = (   0.1666667   0.1666667   0.1666667), wk =   0.1111111
        k(   23) = (   0.1666667   0.1666667   0.3333333), wk =   0.1111111
        k(   24) = (   0.1666667   0.1666667  -0.5000000), wk =   0.0555556
        k(   25) = (   0.1666667   0.3333333   0.0000000), wk =   0.1111111
        k(   26) = (   0.1666667   0.3333333   0.1666667), wk =   0.1111111
        k(   27) = (   0.1666667   0.3333333   0.3333333), wk =   0.1111111
        k(   28) = (   0.1666667   0.3333333  -0.5000000), wk =   0.1111111
        k(   29) = (   0.1666667   0.3333333  -0.3333333), wk =   0.1111111
        k(   30) = (   0.1666667   0.3333333  -0.1666667), wk =   0.1111111
        k(   31) = (   0.3333333   0.3333333   0.0000000), wk =   0.0555556
        k(   32) = (   0.3333333   0.3333333   0.1666667), wk =   0.0555556

     Dense  grid:   267435 G-vectors     FFT dimensions: ( 180, 180, 180)

     Dynamical RAM for                 wfc:       1.82 MB

     Dynamical RAM for     wfc (w. buffer):       7.26 MB

     Dynamical RAM for           str. fact:       0.26 MB

     Dynamical RAM for           local pot:       0.00 MB

     Dynamical RAM for          nlocal pot:       3.76 MB

     Dynamical RAM for                qrad:       3.21 MB

     Dynamical RAM for          rho,v,vnew:       4.83 MB

     Dynamical RAM for               rhoin:       1.61 MB

     Dynamical RAM for            rho*nmix:       2.04 MB

     Dynamical RAM for           G-vectors:       0.54 MB

     Dynamical RAM for          h,s,v(r/c):       2.38 MB

     Dynamical RAM for          <psi|beta>:       0.41 MB

     Dynamical RAM for                 psi:       3.63 MB

     Dynamical RAM for                hpsi:       3.63 MB

     Dynamical RAM for      wfcinit/wfcrot:       3.93 MB

     Estimated static dynamical RAM per process >      29.27 MB

     Estimated max dynamical RAM per process >      41.37 MB

     Estimated total dynamical RAM >      14.81 GB

     Initial potential from superposition of free atoms

     starting charge     189.3015, renormalised to     190.0000
     Starting wfcs are random

     total cpu time spent up to now is        4.2 secs

     per-process dynamical memory:   166.6 Mb

     Self-consistent Calculation

     iteration #  1     ecut=   100.00 Ry     beta= 0.70
     Davidson diagonalization with overlap

---- Real-time Memory Report at c_bands before calling an iterative solver
           243 MiB given to the printing process from OS
           162 MiB allocation reported by mallinfo(arena+hblkhd)
        336387 MiB available memory on the node where the printing process lives
------------------
     ethr =  1.00E-02,  avg # of iterations = 12.1

     Threshold (ethr) on eigenvalues was too large:
     Diagonalizing with lowered threshold

     Davidson diagonalization with overlap

---- Real-time Memory Report at c_bands before calling an iterative solver
           260 MiB given to the printing process from OS
           165 MiB allocation reported by mallinfo(arena+hblkhd)
        334989 MiB available memory on the node where the printing process lives
------------------
     ethr =  9.19E-04,  avg # of iterations =  2.0

     total cpu time spent up to now is       20.4 secs

     total energy              =   -1450.22891371 Ry
     estimated scf accuracy    <       1.79495547 Ry

     iteration #  2     ecut=   100.00 Ry     beta= 0.70
     Davidson diagonalization with overlap

---- Real-time Memory Report at c_bands before calling an iterative solver
           283 MiB given to the printing process from OS
           160 MiB allocation reported by mallinfo(arena+hblkhd)
        334540 MiB available memory on the node where the printing process lives
------------------
     ethr =  9.45E-04,  avg # of iterations =  6.9

     total cpu time spent up to now is       26.1 secs

     total energy              =   -1450.41958853 Ry
     estimated scf accuracy    <       2.08477393 Ry

     iteration #  3     ecut=   100.00 Ry     beta= 0.70
     Davidson diagonalization with overlap

---- Real-time Memory Report at c_bands before calling an iterative solver
           283 MiB given to the printing process from OS
           160 MiB allocation reported by mallinfo(arena+hblkhd)
        334510 MiB available memory on the node where the printing process lives
------------------
     ethr =  9.45E-04,  avg # of iterations =  3.0

     total cpu time spent up to now is       30.9 secs

     total energy              =   -1450.91212198 Ry
     estimated scf accuracy    <       0.09992888 Ry

     iteration #  4     ecut=   100.00 Ry     beta= 0.70
     Davidson diagonalization with overlap

---- Real-time Memory Report at c_bands before calling an iterative solver
           283 MiB given to the printing process from OS
           161 MiB allocation reported by mallinfo(arena+hblkhd)
        334437 MiB available memory on the node where the printing process lives
------------------
     ethr =  5.26E-05,  avg # of iterations =  9.4

     total cpu time spent up to now is       36.7 secs

     total energy              =   -1450.93097233 Ry
     estimated scf accuracy    <       0.01865222 Ry

     iteration #  5     ecut=   100.00 Ry     beta= 0.70
     Davidson diagonalization with overlap

---- Real-time Memory Report at c_bands before calling an iterative solver
           283 MiB given to the printing process from OS
           161 MiB allocation reported by mallinfo(arena+hblkhd)
        334403 MiB available memory on the node where the printing process lives
------------------
     ethr =  9.82E-06,  avg # of iterations =  7.3

     total cpu time spent up to now is       42.4 secs

     total energy              =   -1450.93411983 Ry
     estimated scf accuracy    <       0.01029164 Ry

     iteration #  6     ecut=   100.00 Ry     beta= 0.70
     Davidson diagonalization with overlap

---- Real-time Memory Report at c_bands before calling an iterative solver
           284 MiB given to the printing process from OS
           161 MiB allocation reported by mallinfo(arena+hblkhd)
        334304 MiB available memory on the node where the printing process lives
------------------
     ethr =  5.42E-06,  avg # of iterations =  3.4

     total cpu time spent up to now is       46.7 secs

     total energy              =   -1450.93610166 Ry
     estimated scf accuracy    <       0.00022234 Ry

     iteration #  7     ecut=   100.00 Ry     beta= 0.70
     Davidson diagonalization with overlap

---- Real-time Memory Report at c_bands before calling an iterative solver
           284 MiB given to the printing process from OS
           161 MiB allocation reported by mallinfo(arena+hblkhd)
        334224 MiB available memory on the node where the printing process lives
------------------
     ethr =  1.17E-07,  avg # of iterations = 14.2

     total cpu time spent up to now is       53.2 secs

     total energy              =   -1450.93617748 Ry
     estimated scf accuracy    <       0.00007719 Ry

     iteration #  8     ecut=   100.00 Ry     beta= 0.70
     Davidson diagonalization with overlap

---- Real-time Memory Report at c_bands before calling an iterative solver
           285 MiB given to the printing process from OS
           162 MiB allocation reported by mallinfo(arena+hblkhd)
        334213 MiB available memory on the node where the printing process lives
------------------
     ethr =  4.06E-08,  avg # of iterations =  5.4

     total cpu time spent up to now is       58.9 secs

     total energy              =   -1450.93619009 Ry
     estimated scf accuracy    <       0.00000750 Ry

     iteration #  9     ecut=   100.00 Ry     beta= 0.70
     Davidson diagonalization with overlap

---- Real-time Memory Report at c_bands before calling an iterative solver
           285 MiB given to the printing process from OS
           162 MiB allocation reported by mallinfo(arena+hblkhd)
        334179 MiB available memory on the node where the printing process lives
------------------
     ethr =  3.95E-09,  avg # of iterations =  9.1

     total cpu time spent up to now is       65.0 secs

     total energy              =   -1450.93619179 Ry
     estimated scf accuracy    <       0.00000028 Ry

     iteration # 10     ecut=   100.00 Ry     beta= 0.70
     Davidson diagonalization with overlap

---- Real-time Memory Report at c_bands before calling an iterative solver
           287 MiB given to the printing process from OS
           162 MiB allocation reported by mallinfo(arena+hblkhd)
        334177 MiB available memory on the node where the printing process lives
------------------
     ethr =  1.46E-10,  avg # of iterations =  9.1

     total cpu time spent up to now is       71.6 secs

     total energy              =   -1450.93619185 Ry
     estimated scf accuracy    <       0.00000009 Ry

     iteration # 11     ecut=   100.00 Ry     beta= 0.70
     Davidson diagonalization with overlap

---- Real-time Memory Report at c_bands before calling an iterative solver
           287 MiB given to the printing process from OS
           162 MiB allocation reported by mallinfo(arena+hblkhd)
        334163 MiB available memory on the node where the printing process lives
------------------
     ethr =  4.62E-11,  avg # of iterations =  5.3

     total cpu time spent up to now is       77.4 secs

     total energy              =   -1450.93619186 Ry
     estimated scf accuracy    <          4.2E-09 Ry

     iteration # 12     ecut=   100.00 Ry     beta= 0.70
     Davidson diagonalization with overlap

---- Real-time Memory Report at c_bands before calling an iterative solver
           287 MiB given to the printing process from OS
           162 MiB allocation reported by mallinfo(arena+hblkhd)
        334193 MiB available memory on the node where the printing process lives
------------------
     ethr =  2.23E-12,  avg # of iterations = 10.3

     total cpu time spent up to now is       83.8 secs

     total energy              =   -1450.93619186 Ry
     estimated scf accuracy    <          7.7E-10 Ry

     iteration # 13     ecut=   100.00 Ry     beta= 0.70
     Davidson diagonalization with overlap

---- Real-time Memory Report at c_bands before calling an iterative solver
           287 MiB given to the printing process from OS
           162 MiB allocation reported by mallinfo(arena+hblkhd)
        334133 MiB available memory on the node where the printing process lives
------------------
     ethr =  4.03E-13,  avg # of iterations =  5.2

     total cpu time spent up to now is       88.6 secs

     total energy              =   -1450.93619186 Ry
     estimated scf accuracy    <          5.2E-11 Ry

     iteration # 14     ecut=   100.00 Ry     beta= 0.70
     Davidson diagonalization with overlap

---- Real-time Memory Report at c_bands before calling an iterative solver
           287 MiB given to the printing process from OS
           162 MiB allocation reported by mallinfo(arena+hblkhd)
        334168 MiB available memory on the node where the printing process lives
------------------
     ethr =  1.00E-13,  avg # of iterations =  3.6

     total cpu time spent up to now is       92.8 secs

     total energy              =   -1450.93619186 Ry
     estimated scf accuracy    <          1.1E-12 Ry

     iteration # 15     ecut=   100.00 Ry     beta= 0.70
     Davidson diagonalization with overlap

---- Real-time Memory Report at c_bands before calling an iterative solver
           287 MiB given to the printing process from OS
           162 MiB allocation reported by mallinfo(arena+hblkhd)
        334159 MiB available memory on the node where the printing process lives
------------------
     ethr =  1.00E-13,  avg # of iterations =  1.0

     total cpu time spent up to now is       96.3 secs

     End of self-consistent calculation

          k = 0.0000 0.0000 0.0000 ( 33383 PWs)   bands (ev):

   -47.1484 -47.1484 -46.8827 -46.8827 -46.8827 -46.8827 -24.3020 -24.3009
   -23.7552 -23.7552 -23.7536 -23.7536 -23.6381 -23.6274 -23.1146 -23.1146
   -23.1145 -23.1145 -22.6904 -22.6902 -22.4622 -22.4622 -22.4620 -22.4620
   -16.8233 -16.7819 -16.1656 -16.1542 -16.1329 -16.0606 -15.9887 -15.9887
   -15.9332 -15.9332 -15.4352 -15.3208 -15.3208 -15.3163 -15.2708 -15.2708
     0.6150   0.6254   0.6254   0.6623   0.7174   0.7174   0.7355   1.2247
     1.2479   1.2479   1.3015   1.4637   1.4637   1.5293   1.5986   1.6349
     1.6349   1.6575   1.8048   1.8048   1.9778   1.9778   2.0698   2.1035
     2.1107   2.1107   2.6046   2.6046   2.6306   2.6547   2.6547   2.7848
     2.8329   2.9161   2.9203   2.9203   2.9784   3.0244   3.0244   3.3403
     3.3403   3.4702   3.4702   3.4897   3.5472   3.5472   3.5785   3.5785
     7.2215   7.2889   7.9687   7.9687   8.0406   8.0406   9.5734   9.6385
    10.6820  10.6820  10.7247  10.7247  11.1445  11.2704  11.5957  11.5957
    11.6267  11.6267  11.8547  12.4344  12.4344  12.5029  12.5178  12.5569
    12.5569  12.8409

     occupation numbers 
     1.0000   1.0000   1.0000   1.0000   1.0000   1.0000   1.0000   1.0000
     1.0000   1.0000   1.0000   1.0000   1.0000   1.0000   1.0000   1.0000
     1.0000   1.0000   1.0000   1.0000   1.0000   1.0000   1.0000   1.0000
     1.0000   1.0000   1.0000   1.0000   1.0000   1.0000   1.0000   1.0000
     1.0000   1.0000   1.0000   1.0000   1.0000   1.0000   1.0000   1.0000
     1.0000   1.0000   1.0000   1.0000   1.0000   1.0000   1.0000   1.0000
     1.0000   1.0000   1.0000   1.0000   1.0000   1.0000   1.0000   1.0000
     1.0000   1.0000   1.0000   1.0000   1.0000   1.0000   1.0000   1.0000
     1.0000   1.0000   1.0000   1.0000   1.0000   1.0000   1.0000   1.0000
     1.0000   1.0000   1.0000   1.0000   1.0000   1.0000   1.0000   1.0000
     1.0000   1.0000   1.0000   1.0000   1.0000   1.0000   1.0000   1.0000
     1.0000   1.0000   1.0000   1.0000   1.0000   1.0000   0.0000   0.0000
     0.0000   0.0000   0.0000   0.0000   0.0000   0.0000   0.0000   0.0000
     0.0000   0.0000   0.0000   0.0000   0.0000   0.0000   0.0000   0.0000
     0.0000   0.0000

          k = 0.0000 0.0000 0.1012 ( 33395 PWs)   bands (ev):

   -47.1484 -47.1484 -46.8827 -46.8827 -46.8827 -46.8827 -24.3022 -24.3007
   -23.7551 -23.7551 -23.7536 -23.7536 -23.6374 -23.6281 -23.1150 -23.1150
   -23.1140 -23.1140 -22.6904 -22.6903 -22.4622 -22.4622 -22.4620 -22.4620
   -16.8202 -16.7837 -16.1761 -16.1604 -16.1257 -16.0530 -15.9868 -15.9868
   -15.9355 -15.9355 -15.4288 -15.3220 -15.3182 -15.3182 -15.2730 -15.2730
     0.6169   0.6245   0.6245   0.6366   0.7057   0.7057   0.7881   1.1848
     1.2623   1.2719   1.2719   1.4737   1.4737   1.5361   1.6403   1.6403
     1.6490   1.6723   1.8022   1.8022   1.9668   1.9668   1.9764   2.0869
     2.0869   2.1712   2.6081   2.6081   2.6450   2.6450   2.6726   2.7626
     2.7928   2.9264   2.9264   2.9721   2.9729   3.0365   3.0365   3.3389
     3.3389   3.4613   3.4710   3.4710   3.5488   3.5488   3.5762   3.5762
     7.2233   7.2868   7.9707   7.9707   8.0381   8.0381   9.5777   9.6379
    10.6846  10.6846  10.7217  10.7217  11.1439  11.2927  11.5949  11.5949
    11.6260  11.6260  11.8952  12.4367  12.4367  12.5030  12.5175  12.5554
    12.5554  12.8382

     occupation numbers 
     1.0000   1.0000   1.0000   1.0000   1.0000   1.0000   1.0000   1.0000
     1.0000   1.0000   1.0000   1.0000   1.0000   1.0000   1.0000   1.0000
     1.0000   1.0000   1.0000   1.0000   1.0000   1.0000   1.0000   1.0000
     1.0000   1.0000   1.0000   1.0000   1.0000   1.0000   1.0000   1.0000
     1.0000   1.0000   1.0000   1.0000   1.0000   1.0000   1.0000   1.0000
     1.0000   1.0000   1.0000   1.0000   1.0000   1.0000   1.0000   1.0000
     1.0000   1.0000   1.0000   1.0000   1.0000   1.0000   1.0000   1.0000
     1.0000   1.0000   1.0000   1.0000   1.0000   1.0000   1.0000   1.0000
     1.0000   1.0000   1.0000   1.0000   1.0000   1.0000   1.0000   1.0000
     1.0000   1.0000   1.0000   1.0000   1.0000   1.0000   1.0000   1.0000
     1.0000   1.0000   1.0000   1.0000   1.0000   1.0000   1.0000   1.0000
     1.0000   1.0000   1.0000   1.0000   1.0000   1.0000   0.0000   0.0000
     0.0000   0.0000   0.0000   0.0000   0.0000   0.0000   0.0000   0.0000
     0.0000   0.0000   0.0000   0.0000   0.0000   0.0000   0.0000   0.0000
     0.0000   0.0000

          k = 0.0000 0.0000 0.2024 ( 33433 PWs)   bands (ev):

   -47.1484 -47.1484 -46.8827 -46.8827 -46.8827 -46.8827 -24.3024 -24.3004
   -23.7549 -23.7549 -23.7538 -23.7538 -23.6355 -23.6300 -23.1154 -23.1154
   -23.1136 -23.1136 -22.6904 -22.6903 -22.4622 -22.4622 -22.4620 -22.4620
   -16.8122 -16.7889 -16.1892 -16.1749 -16.1136 -16.0415 -15.9824 -15.9824
   -15.9405 -15.9405 -15.4132 -15.3363 -15.3121 -15.3121 -15.2784 -15.2784
     0.5968   0.6240   0.6240   0.6435   0.6828   0.6828   0.8670   1.1183
     1.1976   1.3236   1.3236   1.4872   1.4872   1.5540   1.6278   1.6589
     1.6589   1.7957   1.7957   1.7980   1.8677   1.9451   1.9451   2.0347
     2.0347   2.2389   2.6045   2.6045   2.6276   2.6381   2.6381   2.7804
     2.8106   2.9396   2.9396   2.9575   3.0477   3.0570   3.0570   3.3365
     3.3365   3.3900   3.4723   3.4723   3.5538   3.5538   3.5700   3.5700
     7.2271   7.2822   7.9751   7.9751   8.0326   8.0326   9.5866   9.6366
    10.6919  10.6919  10.7136  10.7136  11.1516  11.3219  11.5935  11.5935
    11.6248  11.6248  12.0402  12.4416  12.4416  12.5034  12.5171  12.5522
    12.5522  12.6781

     occupation numbers 
     1.0000   1.0000   1.0000   1.0000   1.0000   1.0000   1.0000   1.0000
     1.0000   1.0000   1.0000   1.0000   1.0000   1.0000   1.0000   1.0000
     1.0000   1.0000   1.0000   1.0000   1.0000   1.0000   1.0000   1.0000
     1.0000   1.0000   1.0000   1.0000   1.0000   1.0000   1.0000   1.0000
     1.0000   1.0000   1.0000   1.0000   1.0000   1.0000   1.0000   1.0000
     1.0000   1.0000   1.0000   1.0000   1.0000   1.0000   1.0000   1.0000
     1.0000   1.0000   1.0000   1.0000   1.0000   1.0000   1.0000   1.0000
     1.0000   1.0000   1.0000   1.0000   1.0000   1.0000   1.0000   1.0000
     1.0000   1.0000   1.0000   1.0000   1.0000   1.0000   1.0000   1.0000
     1.0000   1.0000   1.0000   1.0000   1.0000   1.0000   1.0000   1.0000
     1.0000   1.0000   1.0000   1.0000   1.0000   1.0000   1.0000   1.0000
     1.0000   1.0000   1.0000   1.0000   1.0000   1.0000   0.0000   0.0000
     0.0000   0.0000   0.0000   0.0000   0.0000   0.0000   0.0000   0.0000
     0.0000   0.0000   0.0000   0.0000   0.0000   0.0000   0.0000   0.0000
     0.0000   0.0000

          k = 0.0000 0.0000-0.3036 ( 33454 PWs)   bands (ev):

   -47.1484 -47.1484 -46.8827 -46.8827 -46.8827 -46.8827 -24.3025 -24.3003
   -23.7548 -23.7548 -23.7539 -23.7539 -23.6332 -23.6323 -23.1156 -23.1156
   -23.1135 -23.1135 -22.6903 -22.6903 -22.4622 -22.4622 -22.4620 -22.4620
   -16.8060 -16.7938 -16.1946 -16.1812 -16.1086 -16.0369 -15.9797 -15.9797
   -15.9435 -15.9435 -15.4026 -15.3463 -15.3082 -15.3082 -15.2820 -15.2820
     0.5879   0.6250   0.6250   0.6516   0.6708   0.6708   0.9080   1.0868
     1.1662   1.3533   1.3533   1.4881   1.4881   1.5687   1.6115   1.6743
     1.6743   1.7913   1.7913   1.8157   1.8650   1.9349   1.9349   2.0045
     2.0045   2.2673   2.5767   2.5985   2.5985   2.6395   2.6395   2.8109
     2.8210   2.9467   2.9467   2.9488   3.0656   3.0656   3.0965   3.3355
     3.3355   3.3387   3.4728   3.4728   3.5613   3.5613   3.5620   3.5620
     7.2292   7.2798   7.9777   7.9777   8.0296   8.0296   9.5911   9.6358
    10.7003  10.7003  10.7049  10.7049  11.1588  11.3296  11.5928  11.5928
    11.6242  11.6242  12.2748  12.3511  12.4442  12.4442  12.5036  12.5169
    12.5504  12.5504

     occupation numbers 
     1.0000   1.0000   1.0000   1.0000   1.0000   1.0000   1.0000   1.0000
     1.0000   1.0000   1.0000   1.0000   1.0000   1.0000   1.0000   1.0000
     1.0000   1.0000   1.0000   1.0000   1.0000   1.0000   1.0000   1.0000
     1.0000   1.0000   1.0000   1.0000   1.0000   1.0000   1.0000   1.0000
     1.0000   1.0000   1.0000   1.0000   1.0000   1.0000   1.0000   1.0000
     1.0000   1.0000   1.0000   1.0000   1.0000   1.0000   1.0000   1.0000
     1.0000   1.0000   1.0000   1.0000   1.0000   1.0000   1.0000   1.0000
     1.0000   1.0000   1.0000   1.0000   1.0000   1.0000   1.0000   1.0000
     1.0000   1.0000   1.0000   1.0000   1.0000   1.0000   1.0000   1.0000
     1.0000   1.0000   1.0000   1.0000   1.0000   1.0000   1.0000   1.0000
     1.0000   1.0000   1.0000   1.0000   1.0000   1.0000   1.0000   1.0000
     1.0000   1.0000   1.0000   1.0000   1.0000   1.0000   0.0000   0.0000
     0.0000   0.0000   0.0000   0.0000   0.0000   0.0000   0.0000   0.0000
     0.0000   0.0000   0.0000   0.0000   0.0000   0.0000   0.0000   0.0000
     0.0000   0.0000

          k =-0.0962 0.1667-0.0337 ( 33410 PWs)   bands (ev):

   -47.1451 -47.1450 -46.8862 -46.8862 -46.8827 -46.8827 -24.2585 -24.2575
   -23.7461 -23.7446 -23.7183 -23.7167 -23.6226 -23.6125 -23.1371 -23.1360
   -23.1185 -23.1182 -22.7228 -22.7227 -22.5349 -22.5344 -22.4741 -22.4738
   -16.7799 -16.7441 -16.1834 -16.1793 -16.1011 -16.0249 -15.9710 -15.9402
   -15.9221 -15.8831 -15.4532 -15.3623 -15.3589 -15.3167 -15.3091 -15.2896
     0.5877   0.6059   0.6868   0.7653   0.7672   0.8144   0.8916   1.0815
     1.1420   1.1609   1.3704   1.3858   1.5135   1.5668   1.5861   1.6490
     1.7544   1.8040   1.8368   1.8610   1.9108   2.0181   2.0202   2.0930
     2.1273   2.1729   2.5036   2.5956   2.6047   2.6387   2.7021   2.7701
     2.8270   2.8892   2.9009   2.9316   2.9454   3.0205   3.0424   3.2525
     3.2998   3.3015   3.4225   3.4442   3.5173   3.5700   3.6011   3.6269
     7.1870   7.2358   8.0058   8.0069   8.0631   8.0817   9.5142   9.5650
    10.6878  10.6937  10.7262  10.7313  11.2003  11.3578  11.4674  11.5025
    11.5406  11.5812  12.0335  12.2215  12.2470  12.2804  12.4304  12.5699
    12.6559  12.7309

     occupation numbers 
     1.0000   1.0000   1.0000   1.0000   1.0000   1.0000   1.0000   1.0000
     1.0000   1.0000   1.0000   1.0000   1.0000   1.0000   1.0000   1.0000
     1.0000   1.0000   1.0000   1.0000   1.0000   1.0000   1.0000   1.0000
     1.0000   1.0000   1.0000   1.0000   1.0000   1.0000   1.0000   1.0000
     1.0000   1.0000   1.0000   1.0000   1.0000   1.0000   1.0000   1.0000
     1.0000   1.0000   1.0000   1.0000   1.0000   1.0000   1.0000   1.0000
     1.0000   1.0000   1.0000   1.0000   1.0000   1.0000   1.0000   1.0000
     1.0000   1.0000   1.0000   1.0000   1.0000   1.0000   1.0000   1.0000
     1.0000   1.0000   1.0000   1.0000   1.0000   1.0000   1.0000   1.0000
     1.0000   1.0000   1.0000   1.0000   1.0000   1.0000   1.0000   1.0000
     1.0000   1.0000   1.0000   1.0000   1.0000   1.0000   1.0000   1.0000
     1.0000   1.0000   1.0000   1.0000   1.0000   1.0000   0.0001   0.0000
     0.0000   0.0000   0.0000   0.0000   0.0000   0.0000   0.0000   0.0000
     0.0000   0.0000   0.0000   0.0000   0.0000   0.0000   0.0000   0.0000
     0.0000   0.0000

          k =-0.0962 0.1667 0.0675 ( 33416 PWs)   bands (ev):

   -47.1451 -47.1450 -46.8862 -46.8862 -46.8827 -46.8827 -24.2586 -24.2574
   -23.7461 -23.7446 -23.7183 -23.7168 -23.6223 -23.6127 -23.1366 -23.1365
   -23.1190 -23.1177 -22.7228 -22.7227 -22.5349 -22.5344 -22.4741 -22.4738
   -16.7790 -16.7446 -16.1851 -16.1792 -16.1013 -16.0242 -15.9710 -15.9382
   -15.9213 -15.8855 -15.4510 -15.3641 -15.3560 -15.3177 -15.3115 -15.2889
     0.5650   0.6250   0.6904   0.7653   0.7659   0.8096   0.8954   1.0988
     1.1360   1.1536   1.3579   1.3919   1.5065   1.5474   1.6320   1.6622
     1.7652   1.7737   1.7971   1.9009   1.9231   2.0116   2.0301   2.0809
     2.0977   2.1950   2.5224   2.5820   2.5986   2.6098   2.7212   2.7776
     2.7982   2.8926   2.9008   2.9386   2.9453   3.0303   3.0434   3.2670
     3.3023   3.3177   3.4121   3.4232   3.5240   3.5610   3.6001   3.6348
     7.1862   7.2362   8.0056   8.0092   8.0638   8.0788   9.5151   9.5649
    10.6889  10.6954  10.7245  10.7301  11.2012  11.3593  11.4678  11.5019
    11.5406  11.5801  12.0282  12.2229  12.2465  12.2804  12.4646  12.5744
    12.6548  12.7288

     occupation numbers 
     1.0000   1.0000   1.0000   1.0000   1.0000   1.0000   1.0000   1.0000
     1.0000   1.0000   1.0000   1.0000   1.0000   1.0000   1.0000   1.0000
     1.0000   1.0000   1.0000   1.0000   1.0000   1.0000   1.0000   1.0000
     1.0000   1.0000   1.0000   1.0000   1.0000   1.0000   1.0000   1.0000
     1.0000   1.0000   1.0000   1.0000   1.0000   1.0000   1.0000   1.0000
     1.0000   1.0000   1.0000   1.0000   1.0000   1.0000   1.0000   1.0000
     1.0000   1.0000   1.0000   1.0000   1.0000   1.0000   1.0000   1.0000
     1.0000   1.0000   1.0000   1.0000   1.0000   1.0000   1.0000   1.0000
     1.0000   1.0000   1.0000   1.0000   1.0000   1.0000   1.0000   1.0000
     1.0000   1.0000   1.0000   1.0000   1.0000   1.0000   1.0000   1.0000
     1.0000   1.0000   1.0000   1.0000   1.0000   1.0000   1.0000   1.0000
     1.0000   1.0000   1.0000   1.0000   1.0000   1.0000   0.0001   0.0000
     0.0000   0.0000   0.0000   0.0000   0.0000   0.0000   0.0000   0.0000
     0.0000   0.0000   0.0000   0.0000   0.0000   0.0000   0.0000   0.0000
     0.0000   0.0000

          k =-0.0962 0.1667 0.1687 ( 33441 PWs)   bands (ev):

   -47.1451 -47.1450 -46.8862 -46.8862 -46.8827 -46.8827 -24.2589 -24.2571
   -23.7460 -23.7447 -23.7182 -23.7169 -23.6208 -23.6142 -23.1371 -23.1360
   -23.1193 -23.1173 -22.7228 -22.7227 -22.5349 -22.5345 -22.4741 -22.4739
   -16.7731 -16.7482 -16.1917 -16.1862 -16.0985 -16.0181 -15.9666 -15.9339
   -15.9256 -15.8906 -15.4380 -15.3682 -15.3495 -15.3207 -15.3172 -15.2926
     0.5518   0.6201   0.6936   0.7398   0.7587   0.8511   0.8853   1.0941
     1.1474   1.1847   1.3454   1.3815   1.5205   1.5353   1.6509   1.7249
     1.7336   1.7786   1.8091   1.9115   1.9297   1.9453   1.9872   2.0574
     2.1207   2.2428   2.5216   2.5656   2.5682   2.5807   2.6853   2.7845
     2.8069   2.8971   2.9249   2.9519   2.9594   3.0559   3.0657   3.2760
     3.3022   3.3336   3.3605   3.4244   3.5315   3.5550   3.5906   3.6375
     7.1863   7.2346   8.0074   8.0156   8.0617   8.0717   9.5218   9.5627
    10.6950  10.6990  10.7199  10.7233  11.2138  11.3663  11.4667  11.5016
    11.5407  11.5780  12.0845  12.2225  12.2477  12.2820  12.5241  12.5880
    12.6419  12.7132

     occupation numbers 
     1.0000   1.0000   1.0000   1.0000   1.0000   1.0000   1.0000   1.0000
     1.0000   1.0000   1.0000   1.0000   1.0000   1.0000   1.0000   1.0000
     1.0000   1.0000   1.0000   1.0000   1.0000   1.0000   1.0000   1.0000
     1.0000   1.0000   1.0000   1.0000   1.0000   1.0000   1.0000   1.0000
     1.0000   1.0000   1.0000   1.0000   1.0000   1.0000   1.0000   1.0000
     1.0000   1.0000   1.0000   1.0000   1.0000   1.0000   1.0000   1.0000
     1.0000   1.0000   1.0000   1.0000   1.0000   1.0000   1.0000   1.0000
     1.0000   1.0000   1.0000   1.0000   1.0000   1.0000   1.0000   1.0000
     1.0000   1.0000   1.0000   1.0000   1.0000   1.0000   1.0000   1.0000
     1.0000   1.0000   1.0000   1.0000   1.0000   1.0000   1.0000   1.0000
     1.0000   1.0000   1.0000   1.0000   1.0000   1.0000   1.0000   1.0000
     1.0000   1.0000   1.0000   1.0000   1.0000   1.0000   0.0001   0.0000
     0.0000   0.0000   0.0000   0.0000   0.0000   0.0000   0.0000   0.0000
     0.0000   0.0000   0.0000   0.0000   0.0000   0.0000   0.0000   0.0000
     0.0000   0.0000

          k =-0.0962 0.1667-0.3374 ( 33453 PWs)   bands (ev):

   -47.1451 -47.1451 -46.8863 -46.8862 -46.8827 -46.8827 -24.2591 -24.2569
   -23.7458 -23.7448 -23.7181 -23.7170 -23.6186 -23.6165 -23.1375 -23.1356
   -23.1194 -23.1173 -22.7228 -22.7227 -22.5348 -22.5346 -22.4740 -22.4739
   -16.7661 -16.7533 -16.1954 -16.1938 -16.0952 -16.0133 -15.9611 -15.9317
   -15.9315 -15.8934 -15.4243 -15.3747 -15.3455 -15.3208 -15.3204 -15.2982
     0.5506   0.6106   0.6999   0.7109   0.7684   0.8304   0.9356   1.0357
     1.1797   1.2594   1.3208   1.3603   1.5298   1.5383   1.6331   1.7255
     1.7508   1.8181   1.8318   1.8779   1.8913   1.9319   1.9805   2.0565
     2.1216   2.2773   2.5069   2.5324   2.5661   2.5795   2.6239   2.7864
     2.8602   2.8902   2.9142   2.9756   3.0038   3.0648   3.0815   3.2685
     3.2878   3.3001   3.3805   3.4247   3.5295   3.5567   3.5849   3.6335
     7.1871   7.2327   8.0096   8.0202   8.0587   8.0671   9.5284   9.5599
    10.7017  10.7042  10.7135  10.7165  11.2289  11.3662  11.4651  11.5019
    11.5407  11.5771  12.1619  12.2209  12.2493  12.2922  12.6044  12.6076
    12.6230  12.6526

     occupation numbers 
     1.0000   1.0000   1.0000   1.0000   1.0000   1.0000   1.0000   1.0000
     1.0000   1.0000   1.0000   1.0000   1.0000   1.0000   1.0000   1.0000
     1.0000   1.0000   1.0000   1.0000   1.0000   1.0000   1.0000   1.0000
     1.0000   1.0000   1.0000   1.0000   1.0000   1.0000   1.0000   1.0000
     1.0000   1.0000   1.0000   1.0000   1.0000   1.0000   1.0000   1.0000
     1.0000   1.0000   1.0000   1.0000   1.0000   1.0000   1.0000   1.0000
     1.0000   1.0000   1.0000   1.0000   1.0000   1.0000   1.0000   1.0000
     1.0000   1.0000   1.0000   1.0000   1.0000   1.0000   1.0000   1.0000
     1.0000   1.0000   1.0000   1.0000   1.0000   1.0000   1.0000   1.0000
     1.0000   1.0000   1.0000   1.0000   1.0000   1.0000   1.0000   1.0000
     1.0000   1.0000   1.0000   1.0000   1.0000   1.0000   1.0000   1.0000
     1.0000   1.0000   1.0000   1.0000   1.0000   1.0000   0.0000   0.0000
     0.0000   0.0000   0.0000   0.0000   0.0000   0.0000   0.0000   0.0000
     0.0000   0.0000   0.0000   0.0000   0.0000   0.0000   0.0000   0.0000
     0.0000   0.0000

          k =-0.0962 0.1667-0.2362 ( 33477 PWs)   bands (ev):

   -47.1451 -47.1451 -46.8863 -46.8862 -46.8827 -46.8827 -24.2591 -24.2570
   -23.7458 -23.7448 -23.7181 -23.7170 -23.6194 -23.6157 -23.1377 -23.1355
   -23.1192 -23.1175 -22.7228 -22.7227 -22.5348 -22.5346 -22.4741 -22.4739
   -16.7680 -16.7517 -16.1950 -16.1924 -16.0954 -16.0138 -15.9603 -15.9342
   -15.9331 -15.8902 -15.4283 -15.3710 -15.3500 -15.3189 -15.3168 -15.2995
     0.5573   0.6102   0.6907   0.7172   0.7944   0.8020   0.9367   1.0298
     1.1655   1.2657   1.3312   1.3737   1.5179   1.5644   1.6137   1.6876
     1.7773   1.8134   1.8295   1.8512   1.8922   1.9700   1.9721   2.0890
     2.0936   2.2687   2.4876   2.5388   2.5906   2.5924   2.6433   2.7758
     2.8265   2.8927   2.9275   2.9953   3.0244   3.0333   3.0834   3.2236
     3.2877   3.2978   3.4186   3.4240   3.5199   3.5658   3.5889   3.6256
     7.1880   7.2322   8.0099   8.0168   8.0579   8.0712   9.5274   9.5601
    10.6988  10.7006  10.7171  10.7195  11.2264  11.3668  11.4650  11.5024
    11.5406  11.5782  12.1831  12.2197  12.2498  12.3015  12.4451  12.5935
    12.6307  12.7154

     occupation numbers 
     1.0000   1.0000   1.0000   1.0000   1.0000   1.0000   1.0000   1.0000
     1.0000   1.0000   1.0000   1.0000   1.0000   1.0000   1.0000   1.0000
     1.0000   1.0000   1.0000   1.0000   1.0000   1.0000   1.0000   1.0000
     1.0000   1.0000   1.0000   1.0000   1.0000   1.0000   1.0000   1.0000
     1.0000   1.0000   1.0000   1.0000   1.0000   1.0000   1.0000   1.0000
     1.0000   1.0000   1.0000   1.0000   1.0000   1.0000   1.0000   1.0000
     1.0000   1.0000   1.0000   1.0000   1.0000   1.0000   1.0000   1.0000
     1.0000   1.0000   1.0000   1.0000   1.0000   1.0000   1.0000   1.0000
     1.0000   1.0000   1.0000   1.0000   1.0000   1.0000   1.0000   1.0000
     1.0000   1.0000   1.0000   1.0000   1.0000   1.0000   1.0000   1.0000
     1.0000   1.0000   1.0000   1.0000   1.0000   1.0000   1.0000   1.0000
     1.0000   1.0000   1.0000   1.0000   1.0000   1.0000   0.0000   0.0000
     0.0000   0.0000   0.0000   0.0000   0.0000   0.0000   0.0000   0.0000
     0.0000   0.0000   0.0000   0.0000   0.0000   0.0000   0.0000   0.0000
     0.0000   0.0000

          k =-0.0962 0.1667-0.1350 ( 33441 PWs)   bands (ev):

   -47.1451 -47.1450 -46.8863 -46.8862 -46.8827 -46.8827 -24.2588 -24.2572
   -23.7460 -23.7447 -23.7183 -23.7168 -23.6215 -23.6136 -23.1375 -23.1356
   -23.1187 -23.1179 -22.7228 -22.7227 -22.5349 -22.5345 -22.4741 -22.4738
   -16.7755 -16.7466 -16.1897 -16.1846 -16.0985 -16.0192 -15.9661 -15.9385
   -15.9275 -15.8852 -15.4435 -15.3635 -15.3564 -15.3185 -15.3112 -15.2944
     0.5757   0.6068   0.6848   0.7423   0.7765   0.8274   0.8922   1.0665
     1.1477   1.1967   1.3687   1.3829   1.5082   1.5890   1.6092   1.6378
     1.7715   1.8162   1.8411   1.8413   1.8805   1.9948   2.0072   2.0962
     2.1011   2.2226   2.4845   2.5738   2.5991   2.6302   2.7253   2.7626
     2.7653   2.8997   2.9214   2.9808   2.9816   3.0090   3.0688   3.2300
     3.2923   3.2974   3.4230   3.4448   3.5156   3.5735   3.5953   3.6212
     7.1879   7.2338   8.0078   8.0102   8.0602   8.0784   9.5201   9.5630
    10.6921  10.6949  10.7242  10.7264  11.2106  11.3652  11.4661  11.5026
    11.5406  11.5803  12.1057  12.2199  12.2487  12.2829  12.4094  12.5768
    12.6466  12.7273

     occupation numbers 
     1.0000   1.0000   1.0000   1.0000   1.0000   1.0000   1.0000   1.0000
     1.0000   1.0000   1.0000   1.0000   1.0000   1.0000   1.0000   1.0000
     1.0000   1.0000   1.0000   1.0000   1.0000   1.0000   1.0000   1.0000
     1.0000   1.0000   1.0000   1.0000   1.0000   1.0000   1.0000   1.0000
     1.0000   1.0000   1.0000   1.0000   1.0000   1.0000   1.0000   1.0000
     1.0000   1.0000   1.0000   1.0000   1.0000   1.0000   1.0000   1.0000
     1.0000   1.0000   1.0000   1.0000   1.0000   1.0000   1.0000   1.0000
     1.0000   1.0000   1.0000   1.0000   1.0000   1.0000   1.0000   1.0000
     1.0000   1.0000   1.0000   1.0000   1.0000   1.0000   1.0000   1.0000
     1.0000   1.0000   1.0000   1.0000   1.0000   1.0000   1.0000   1.0000
     1.0000   1.0000   1.0000   1.0000   1.0000   1.0000   1.0000   1.0000
     1.0000   1.0000   1.0000   1.0000   1.0000   1.0000   0.0001   0.0000
     0.0000   0.0000   0.0000   0.0000   0.0000   0.0000   0.0000   0.0000
     0.0000   0.0000   0.0000   0.0000   0.0000   0.0000   0.0000   0.0000
     0.0000   0.0000

          k =-0.1925 0.3333-0.0675 ( 33422 PWs)   bands (ev):

   -47.1381 -47.1380 -46.8937 -46.8937 -46.8827 -46.8827 -24.1655 -24.1650
   -23.7170 -23.7157 -23.6319 -23.6303 -23.5866 -23.5783 -23.1895 -23.1875
   -23.1315 -23.1310 -22.8019 -22.8017 -22.6928 -22.6920 -22.4909 -22.4906
   -16.6809 -16.6576 -16.2457 -16.2422 -16.0333 -16.0091 -15.8714 -15.8342
   -15.8152 -15.7521 -15.5348 -15.4780 -15.4632 -15.4166 -15.3178 -15.3125
     0.5364   0.5614   0.7509   0.8220   0.9071   0.9629   1.1605   1.2043
     1.2529   1.2945   1.2968   1.3639   1.4888   1.5846   1.6220   1.7210
     1.7470   1.8058   1.8159   1.8354   1.8589   1.9619   2.0423   2.0763
     2.2180   2.3213   2.3806   2.4503   2.5657   2.6753   2.7200   2.7849
     2.8041   2.8174   2.8398   2.9047   2.9378   2.9964   3.0034   3.0904
     3.1483   3.2447   3.3318   3.3700   3.4844   3.5619   3.6044   3.6822
     7.1128   7.1241   8.0889   8.0900   8.1118   8.1647   9.3900   9.4156
    10.6779  10.7161  10.7243  10.7417  11.1851  11.2298  11.3811  11.3897
    11.4298  11.4980  11.8987  11.9887  12.0030  12.0917  12.5033  12.5799
    12.6128  12.6591

     occupation numbers 
     1.0000   1.0000   1.0000   1.0000   1.0000   1.0000   1.0000   1.0000
     1.0000   1.0000   1.0000   1.0000   1.0000   1.0000   1.0000   1.0000
     1.0000   1.0000   1.0000   1.0000   1.0000   1.0000   1.0000   1.0000
     1.0000   1.0000   1.0000   1.0000   1.0000   1.0000   1.0000   1.0000
     1.0000   1.0000   1.0000   1.0000   1.0000   1.0000   1.0000   1.0000
     1.0000   1.0000   1.0000   1.0000   1.0000   1.0000   1.0000   1.0000
     1.0000   1.0000   1.0000   1.0000   1.0000   1.0000   1.0000   1.0000
     1.0000   1.0000   1.0000   1.0000   1.0000   1.0000   1.0000   1.0000
     1.0000   1.0000   1.0000   1.0000   1.0000   1.0000   1.0000   1.0000
     1.0000   1.0000   1.0000   1.0000   1.0000   1.0000   1.0000   1.0000
     1.0000   1.0000   1.0000   1.0000   1.0000   1.0000   1.0000   1.0000
     1.0000   1.0000   1.0000   1.0000   1.0000   1.0000   0.4395   0.1908
     0.0000   0.0000   0.0000   0.0000   0.0000   0.0000   0.0000   0.0000
     0.0000   0.0000   0.0000   0.0000   0.0000   0.0000   0.0000   0.0000
     0.0000   0.0000

          k =-0.1925 0.3333 0.0337 ( 33410 PWs)   bands (ev):

   -47.1381 -47.1380 -46.8937 -46.8937 -46.8827 -46.8827 -24.1656 -24.1649
   -23.7171 -23.7156 -23.6319 -23.6303 -23.5867 -23.5782 -23.1890 -23.1879
   -23.1320 -23.1305 -22.8019 -22.8017 -22.6929 -22.6919 -22.4908 -22.4906
   -16.6815 -16.6576 -16.2450 -16.2402 -16.0356 -16.0109 -15.8652 -15.8376
   -15.8134 -15.7546 -15.5351 -15.4804 -15.4598 -15.4193 -15.3157 -15.3128
     0.5161   0.5779   0.7475   0.8517   0.8872   0.9759   1.1478   1.1748
     1.2225   1.3008   1.3299   1.3983   1.4928   1.5592   1.6529   1.6794
     1.7461   1.7715   1.8128   1.8659   1.9313   1.9566   2.0337   2.0439
     2.2260   2.2807   2.4433   2.4556   2.5637   2.6530   2.6956   2.7819
     2.7924   2.8250   2.8324   2.8944   2.9246   2.9956   3.0049   3.1307
     3.1767   3.2450   3.3335   3.3372   3.4897   3.5634   3.6019   3.6886
     7.1066   7.1303   8.0872   8.0949   8.1141   8.1595   9.3884   9.4171
    10.6795  10.7192  10.7227  10.7392  11.1872  11.2304  11.3703  11.3905
    11.4282  11.4981  11.9227  11.9909  12.0009  12.0566  12.4853  12.5792
    12.5997  12.6636

     occupation numbers 
     1.0000   1.0000   1.0000   1.0000   1.0000   1.0000   1.0000   1.0000
     1.0000   1.0000   1.0000   1.0000   1.0000   1.0000   1.0000   1.0000
     1.0000   1.0000   1.0000   1.0000   1.0000   1.0000   1.0000   1.0000
     1.0000   1.0000   1.0000   1.0000   1.0000   1.0000   1.0000   1.0000
     1.0000   1.0000   1.0000   1.0000   1.0000   1.0000   1.0000   1.0000
     1.0000   1.0000   1.0000   1.0000   1.0000   1.0000   1.0000   1.0000
     1.0000   1.0000   1.0000   1.0000   1.0000   1.0000   1.0000   1.0000
     1.0000   1.0000   1.0000   1.0000   1.0000   1.0000   1.0000   1.0000
     1.0000   1.0000   1.0000   1.0000   1.0000   1.0000   1.0000   1.0000
     1.0000   1.0000   1.0000   1.0000   1.0000   1.0000   1.0000   1.0000
     1.0000   1.0000   1.0000   1.0000   1.0000   1.0000   1.0000   1.0000
     1.0000   1.0000   1.0000   1.0000   1.0000   1.0000   0.4582   0.1794
     0.0000   0.0000   0.0000   0.0000   0.0000   0.0000   0.0000   0.0000
     0.0000   0.0000   0.0000   0.0000   0.0000   0.0000   0.0000   0.0000
     0.0000   0.0000

          k =-0.1925 0.3333 0.1350 ( 33430 PWs)   bands (ev):

   -47.1381 -47.1381 -46.8937 -46.8937 -46.8828 -46.8827 -24.1660 -24.1645
   -23.7171 -23.7156 -23.6319 -23.6303 -23.5858 -23.5792 -23.1885 -23.1884
   -23.1324 -23.1302 -22.8019 -22.8017 -22.6929 -22.6920 -22.4908 -22.4906
   -16.6786 -16.6594 -16.2457 -16.2410 -16.0397 -16.0086 -15.8596 -15.8436
   -15.8099 -15.7595 -15.5257 -15.4849 -15.4522 -15.4256 -15.3173 -15.3135
     0.5032   0.5834   0.7343   0.8492   0.8829   1.0079   1.1198   1.1715
     1.2273   1.3121   1.3364   1.4501   1.5081   1.5287   1.6557   1.6580
     1.7361   1.7856   1.8174   1.8864   1.8969   1.9358   2.0507   2.1050
     2.2255   2.2284   2.4584   2.4710   2.5140   2.6384   2.6504   2.7778
     2.7950   2.8217   2.8462   2.9056   2.9415   2.9868   3.0097   3.1328
     3.2303   3.2434   3.2995   3.3453   3.4989   3.5590   3.5952   3.6950
     7.1019   7.1336   8.0838   8.1057   8.1180   8.1486   9.3910   9.4158
    10.6860  10.7155  10.7206  10.7373  11.1965  11.2292  11.3741  11.3937
    11.4241  11.4893  11.9518  11.9919  11.9995  12.0030  12.4962  12.5782
    12.5869  12.6609

     occupation numbers 
     1.0000   1.0000   1.0000   1.0000   1.0000   1.0000   1.0000   1.0000
     1.0000   1.0000   1.0000   1.0000   1.0000   1.0000   1.0000   1.0000
     1.0000   1.0000   1.0000   1.0000   1.0000   1.0000   1.0000   1.0000
     1.0000   1.0000   1.0000   1.0000   1.0000   1.0000   1.0000   1.0000
     1.0000   1.0000   1.0000   1.0000   1.0000   1.0000   1.0000   1.0000
     1.0000   1.0000   1.0000   1.0000   1.0000   1.0000   1.0000   1.0000
     1.0000   1.0000   1.0000   1.0000   1.0000   1.0000   1.0000   1.0000
     1.0000   1.0000   1.0000   1.0000   1.0000   1.0000   1.0000   1.0000
     1.0000   1.0000   1.0000   1.0000   1.0000   1.0000   1.0000   1.0000
     1.0000   1.0000   1.0000   1.0000   1.0000   1.0000   1.0000   1.0000
     1.0000   1.0000   1.0000   1.0000   1.0000   1.0000   1.0000   1.0000
     1.0000   1.0000   1.0000   1.0000   1.0000   1.0000   0.4290   0.1893
     0.0000   0.0000   0.0000   0.0000   0.0000   0.0000   0.0000   0.0000
     0.0000   0.0000   0.0000   0.0000   0.0000   0.0000   0.0000   0.0000
     0.0000   0.0000

          k =-0.1925 0.3333-0.3711 ( 33437 PWs)   bands (ev):

   -47.1381 -47.1381 -46.8937 -46.8936 -46.8828 -46.8827 -24.1662 -24.1643
   -23.7170 -23.7157 -23.6318 -23.6304 -23.5842 -23.5808 -23.1891 -23.1879
   -23.1324 -23.1302 -22.8019 -22.8018 -22.6927 -22.6921 -22.4908 -22.4906
   -16.6739 -16.6624 -16.2471 -16.2437 -16.0412 -16.0047 -15.8637 -15.8428
   -15.8082 -15.7618 -15.5136 -15.4893 -15.4473 -15.4299 -15.3208 -15.3143
     0.5031   0.5801   0.7237   0.8316   0.8782   1.0226   1.1470   1.1607
     1.2478   1.3312   1.3623   1.3908   1.5003   1.5690   1.6346   1.6456
     1.7791   1.7992   1.8188   1.8272   1.9059   1.9390   2.0533   2.1144
     2.2160   2.2525   2.4338   2.4565   2.4841   2.6272   2.6430   2.7810
     2.7988   2.8105   2.8668   2.9289   2.9501   2.9994   3.0109   3.1265
     3.1915   3.2419   3.3380   3.3480   3.5051   3.5506   3.5905   3.6956
     7.1011   7.1328   8.0821   8.1121   8.1197   8.1423   9.3964   9.4118
    10.6941  10.7068  10.7184  10.7384  11.2032  11.2272  11.3940  11.3964
    11.4214  11.4758  11.9309  11.9899  12.0009  12.0118  12.5128  12.5682
    12.5974  12.6512

     occupation numbers 
     1.0000   1.0000   1.0000   1.0000   1.0000   1.0000   1.0000   1.0000
     1.0000   1.0000   1.0000   1.0000   1.0000   1.0000   1.0000   1.0000
     1.0000   1.0000   1.0000   1.0000   1.0000   1.0000   1.0000   1.0000
     1.0000   1.0000   1.0000   1.0000   1.0000   1.0000   1.0000   1.0000
     1.0000   1.0000   1.0000   1.0000   1.0000   1.0000   1.0000   1.0000
     1.0000   1.0000   1.0000   1.0000   1.0000   1.0000   1.0000   1.0000
     1.0000   1.0000   1.0000   1.0000   1.0000   1.0000   1.0000   1.0000
     1.0000   1.0000   1.0000   1.0000   1.0000   1.0000   1.0000   1.0000
     1.0000   1.0000   1.0000   1.0000   1.0000   1.0000   1.0000   1.0000
     1.0000   1.0000   1.0000   1.0000   1.0000   1.0000   1.0000   1.0000
     1.0000   1.0000   1.0000   1.0000   1.0000   1.0000   1.0000   1.0000
     1.0000   1.0000   1.0000   1.0000   1.0000   1.0000   0.3698   0.2210
     0.0000   0.0000   0.0000   0.0000   0.0000   0.0000   0.0000   0.0000
     0.0000   0.0000   0.0000   0.0000   0.0000   0.0000   0.0000   0.0000
     0.0000   0.0000

          k =-0.1925 0.3333-0.2699 ( 33436 PWs)   bands (ev):

   -47.1381 -47.1381 -46.8937 -46.8936 -46.8828 -46.8827 -24.1662 -24.1643
   -23.7169 -23.7159 -23.6318 -23.6305 -23.5839 -23.5811 -23.1895 -23.1875
   -23.1321 -23.1304 -22.8019 -22.8018 -22.6926 -22.6922 -22.4908 -22.4906
   -16.6728 -16.6629 -16.2480 -16.2454 -16.0390 -16.0028 -15.8709 -15.8385
   -15.8104 -15.7588 -15.5144 -15.4858 -15.4533 -15.4246 -15.3224 -15.3147
     0.5136   0.5749   0.7232   0.8387   0.8506   1.0204   1.1483   1.2041
     1.2684   1.3001   1.3301   1.4202   1.5016   1.5608   1.6331   1.6533
     1.7109   1.8087   1.8160   1.8631   1.8846   1.9919   2.0500   2.0833
     2.2079   2.3078   2.3628   2.4682   2.4807   2.6401   2.6684   2.7812
     2.7876   2.8204   2.9040   2.9221   2.9394   3.0110   3.0338   3.0897
     3.1454   3.2415   3.3430   3.3773   3.4982   3.5500   3.5920   3.6901
     7.1051   7.1288   8.0832   8.1034   8.1180   8.1514   9.4000   9.4084
    10.6899  10.7109  10.7153  10.7409  11.1995  11.2277  11.3951  11.4105
    11.4235  11.4709  11.8988  11.9878  12.0029  12.0521  12.5217  12.5833
    12.6000  12.6446

     occupation numbers 
     1.0000   1.0000   1.0000   1.0000   1.0000   1.0000   1.0000   1.0000
     1.0000   1.0000   1.0000   1.0000   1.0000   1.0000   1.0000   1.0000
     1.0000   1.0000   1.0000   1.0000   1.0000   1.0000   1.0000   1.0000
     1.0000   1.0000   1.0000   1.0000   1.0000   1.0000   1.0000   1.0000
     1.0000   1.0000   1.0000   1.0000   1.0000   1.0000   1.0000   1.0000
     1.0000   1.0000   1.0000   1.0000   1.0000   1.0000   1.0000   1.0000
     1.0000   1.0000   1.0000   1.0000   1.0000   1.0000   1.0000   1.0000
     1.0000   1.0000   1.0000   1.0000   1.0000   1.0000   1.0000   1.0000
     1.0000   1.0000   1.0000   1.0000   1.0000   1.0000   1.0000   1.0000
     1.0000   1.0000   1.0000   1.0000   1.0000   1.0000   1.0000   1.0000
     1.0000   1.0000   1.0000   1.0000   1.0000   1.0000   1.0000   1.0000
     1.0000   1.0000   1.0000   1.0000   1.0000   1.0000   0.3320   0.2509
     0.0000   0.0000   0.0000   0.0000   0.0000   0.0000   0.0000   0.0000
     0.0000   0.0000   0.0000   0.0000   0.0000   0.0000   0.0000   0.0000
     0.0000   0.0000

          k =-0.1925 0.3333-0.1687 ( 33431 PWs)   bands (ev):

   -47.1381 -47.1380 -46.8937 -46.8937 -46.8827 -46.8827 -24.1659 -24.1646
   -23.7168 -23.7159 -23.6318 -23.6304 -23.5855 -23.5795 -23.1896 -23.1873
   -23.1316 -23.1309 -22.8019 -22.8017 -22.6927 -22.6922 -22.4908 -22.4906
   -16.6772 -16.6597 -16.2472 -16.2447 -16.0352 -16.0049 -15.8737 -15.8352
   -15.8139 -15.7540 -15.5256 -15.4795 -15.4606 -15.4187 -15.3209 -15.3137
     0.5315   0.5642   0.7358   0.8259   0.8685   1.0027   1.1443   1.2420
     1.2547   1.2873   1.2958   1.4078   1.5075   1.5511   1.6178   1.6984
     1.7336   1.7833   1.8164   1.8467   1.8791   1.9732   2.0459   2.1101
     2.2093   2.3116   2.3510   2.4531   2.5276   2.6570   2.7191   2.7680
     2.7927   2.8338   2.8770   2.9266   2.9487   3.0089   3.0097   3.0626
     3.1401   3.2426   3.3350   3.3874   3.4872   3.5564   3.5991   3.6833
     7.1122   7.1233   8.0865   8.0934   8.1142   8.1615   9.3953   9.4118
    10.6818  10.7144  10.7197  10.7423  11.1908  11.2288  11.3917  11.3993
    11.4277  11.4864  11.8888  11.9874  12.0038  12.0849  12.5248  12.5894
    12.6057  12.6504

     occupation numbers 
     1.0000   1.0000   1.0000   1.0000   1.0000   1.0000   1.0000   1.0000
     1.0000   1.0000   1.0000   1.0000   1.0000   1.0000   1.0000   1.0000
     1.0000   1.0000   1.0000   1.0000   1.0000   1.0000   1.0000   1.0000
     1.0000   1.0000   1.0000   1.0000   1.0000   1.0000   1.0000   1.0000
     1.0000   1.0000   1.0000   1.0000   1.0000   1.0000   1.0000   1.0000
     1.0000   1.0000   1.0000   1.0000   1.0000   1.0000   1.0000   1.0000
     1.0000   1.0000   1.0000   1.0000   1.0000   1.0000   1.0000   1.0000
     1.0000   1.0000   1.0000   1.0000   1.0000   1.0000   1.0000   1.0000
     1.0000   1.0000   1.0000   1.0000   1.0000   1.0000   1.0000   1.0000
     1.0000   1.0000   1.0000   1.0000   1.0000   1.0000   1.0000   1.0000
     1.0000   1.0000   1.0000   1.0000   1.0000   1.0000   1.0000   1.0000
     1.0000   1.0000   1.0000   1.0000   1.0000   1.0000   0.3820   0.2210
     0.0000   0.0000   0.0000   0.0000   0.0000   0.0000   0.0000   0.0000
     0.0000   0.0000   0.0000   0.0000   0.0000   0.0000   0.0000   0.0000
     0.0000   0.0000

          k = 0.2887-0.5000 0.1012 ( 33406 PWs)   bands (ev):

   -47.1344 -47.1344 -46.8975 -46.8975 -46.8828 -46.8828 -24.1165 -24.1164
   -23.6916 -23.6907 -23.5784 -23.5769 -23.5650 -23.5582 -23.2226 -23.2205
   -23.1439 -23.1435 -22.8482 -22.8479 -22.7806 -22.7799 -22.4967 -22.4964
   -16.6185 -16.6039 -16.2914 -16.2841 -16.0114 -16.0102 -15.7673 -15.7011
   -15.6901 -15.6382 -15.6139 -15.6126 -15.5667 -15.5436 -15.3245 -15.3114
     0.4869   0.5064   0.7163   0.8596   1.0965   1.2176   1.2337   1.2367
     1.3626   1.4053   1.4296   1.4393   1.4832   1.5101   1.5410   1.5529
     1.7108   1.7484   1.7839   1.8470   1.8608   1.9637   2.1228   2.1642
     2.1973   2.2221   2.3524   2.4138   2.4642   2.6491   2.6871   2.7117
     2.7664   2.8323   2.8422   2.9053   2.9568   2.9732   3.0189   3.0901
     3.1377   3.2156   3.2906   3.3284   3.4626   3.5216   3.6115   3.7053
     7.0608   7.0778   8.1365   8.1367   8.1385   8.2058   9.3266   9.3362
    10.6533  10.7012  10.7275  10.7501  11.0743  11.1054  11.3071  11.3290
    11.4476  11.6139  11.8108  11.8191  11.9232  11.9312  12.4808  12.5479
    12.5814  12.6561

     occupation numbers 
     1.0000   1.0000   1.0000   1.0000   1.0000   1.0000   1.0000   1.0000
     1.0000   1.0000   1.0000   1.0000   1.0000   1.0000   1.0000   1.0000
     1.0000   1.0000   1.0000   1.0000   1.0000   1.0000   1.0000   1.0000
     1.0000   1.0000   1.0000   1.0000   1.0000   1.0000   1.0000   1.0000
     1.0000   1.0000   1.0000   1.0000   1.0000   1.0000   1.0000   1.0000
     1.0000   1.0000   1.0000   1.0000   1.0000   1.0000   1.0000   1.0000
     1.0000   1.0000   1.0000   1.0000   1.0000   1.0000   1.0000   1.0000
     1.0000   1.0000   1.0000   1.0000   1.0000   1.0000   1.0000   1.0000
     1.0000   1.0000   1.0000   1.0000   1.0000   1.0000   1.0000   1.0000
     1.0000   1.0000   1.0000   1.0000   1.0000   1.0000   1.0000   1.0000
     1.0000   1.0000   1.0000   1.0000   1.0000   1.0000   1.0000   1.0000
     1.0000   1.0000   1.0000   1.0000   1.0000   1.0000   0.9496   0.9149
     0.0000   0.0000   0.0000   0.0000   0.0000   0.0000   0.0000   0.0000
     0.0000   0.0000   0.0000   0.0000   0.0000   0.0000   0.0000   0.0000
     0.0000   0.0000

          k = 0.2887-0.5000 0.2024 ( 33424 PWs)   bands (ev):

   -47.1344 -47.1344 -46.8975 -46.8975 -46.8828 -46.8827 -24.1169 -24.1160
   -23.6917 -23.6906 -23.5784 -23.5769 -23.5647 -23.5585 -23.2225 -23.2206
   -23.1443 -23.1431 -22.8482 -22.8479 -22.7806 -22.7798 -22.4967 -22.4964
   -16.6178 -16.6047 -16.2908 -16.2838 -16.0154 -16.0080 -15.7666 -15.7011
   -15.6894 -15.6389 -15.6138 -15.6122 -15.5668 -15.5435 -15.3237 -15.3122
     0.4856   0.5025   0.7135   0.8717   1.0836   1.1827   1.2148   1.2956
     1.3493   1.4031   1.4237   1.4599   1.4886   1.5106   1.5580   1.5760
     1.7175   1.7327   1.7906   1.8422   1.8537   1.9380   2.1451   2.1501
     2.2131   2.2265   2.2889   2.4321   2.4714   2.6440   2.7014   2.7174
     2.7725   2.8282   2.8432   2.8847   2.9508   2.9617   3.0274   3.0814
     3.1568   3.2131   3.2975   3.3319   3.4645   3.5200   3.6097   3.7091
     7.0600   7.0783   8.1315   8.1411   8.1437   8.2014   9.3272   9.3360
    10.6561  10.6981  10.7280  10.7497  11.0761  11.1053  11.3083  11.3278
    11.4541  11.5984  11.8112  11.8280  11.9235  11.9308  12.4689  12.5346
    12.5821  12.6564

     occupation numbers 
     1.0000   1.0000   1.0000   1.0000   1.0000   1.0000   1.0000   1.0000
     1.0000   1.0000   1.0000   1.0000   1.0000   1.0000   1.0000   1.0000
     1.0000   1.0000   1.0000   1.0000   1.0000   1.0000   1.0000   1.0000
     1.0000   1.0000   1.0000   1.0000   1.0000   1.0000   1.0000   1.0000
     1.0000   1.0000   1.0000   1.0000   1.0000   1.0000   1.0000   1.0000
     1.0000   1.0000   1.0000   1.0000   1.0000   1.0000   1.0000   1.0000
     1.0000   1.0000   1.0000   1.0000   1.0000   1.0000   1.0000   1.0000
     1.0000   1.0000   1.0000   1.0000   1.0000   1.0000   1.0000   1.0000
     1.0000   1.0000   1.0000   1.0000   1.0000   1.0000   1.0000   1.0000
     1.0000   1.0000   1.0000   1.0000   1.0000   1.0000   1.0000   1.0000
     1.0000   1.0000   1.0000   1.0000   1.0000   1.0000   1.0000   1.0000
     1.0000   1.0000   1.0000   1.0000   1.0000   1.0000   0.9478   0.9154
     0.0000   0.0000   0.0000   0.0000   0.0000   0.0000   0.0000   0.0000
     0.0000   0.0000   0.0000   0.0000   0.0000   0.0000   0.0000   0.0000
     0.0000   0.0000

          k = 0.2887-0.5000 0.3036 ( 33467 PWs)   bands (ev):

   -47.1344 -47.1344 -46.8975 -46.8975 -46.8828 -46.8827 -24.1172 -24.1157
   -23.6919 -23.6904 -23.5785 -23.5769 -23.5640 -23.5593 -23.2221 -23.2210
   -23.1447 -23.1426 -22.8482 -22.8480 -22.7807 -22.7797 -22.4967 -22.4965
   -16.6161 -16.6065 -16.2896 -16.2831 -16.0198 -16.0073 -15.7652 -15.7011
   -15.6881 -15.6402 -15.6137 -15.6116 -15.5670 -15.5434 -15.3218 -15.3142
     0.4835   0.4941   0.7087   0.8974   1.0640   1.1465   1.2090   1.2967
     1.3440   1.4008   1.4673   1.4954   1.5003   1.5029   1.5767   1.6256
     1.6984   1.7269   1.8066   1.8161   1.8524   1.9188   2.1266   2.1327
     2.1848   2.2351   2.2845   2.4250   2.4901   2.6329   2.7108   2.7236
     2.8165   2.8210   2.8429   2.8602   2.9251   2.9336   3.0256   3.0763
     3.1984   3.2091   3.3097   3.3304   3.4703   3.5169   3.6064   3.7162
     7.0586   7.0790   8.1273   8.1483   8.1529   8.1897   9.3285   9.3357
    10.6635  10.6901  10.7291  10.7488  11.0802  11.1048  11.3112  11.3246
    11.4748  11.5594  11.8125  11.8460  11.9241  11.9300  12.4533  12.5016
    12.5836  12.6568

     occupation numbers 
     1.0000   1.0000   1.0000   1.0000   1.0000   1.0000   1.0000   1.0000
     1.0000   1.0000   1.0000   1.0000   1.0000   1.0000   1.0000   1.0000
     1.0000   1.0000   1.0000   1.0000   1.0000   1.0000   1.0000   1.0000
     1.0000   1.0000   1.0000   1.0000   1.0000   1.0000   1.0000   1.0000
     1.0000   1.0000   1.0000   1.0000   1.0000   1.0000   1.0000   1.0000
     1.0000   1.0000   1.0000   1.0000   1.0000   1.0000   1.0000   1.0000
     1.0000   1.0000   1.0000   1.0000   1.0000   1.0000   1.0000   1.0000
     1.0000   1.0000   1.0000   1.0000   1.0000   1.0000   1.0000   1.0000
     1.0000   1.0000   1.0000   1.0000   1.0000   1.0000   1.0000   1.0000
     1.0000   1.0000   1.0000   1.0000   1.0000   1.0000   1.0000   1.0000
     1.0000   1.0000   1.0000   1.0000   1.0000   1.0000   1.0000   1.0000
     1.0000   1.0000   1.0000   1.0000   1.0000   1.0000   0.9437   0.9169
     0.0000   0.0000   0.0000   0.0000   0.0000   0.0000   0.0000   0.0000
     0.0000   0.0000   0.0000   0.0000   0.0000   0.0000   0.0000   0.0000
     0.0000   0.0000

          k = 0.2887-0.5000-0.2024 ( 33460 PWs)   bands (ev):

   -47.1344 -47.1344 -46.8975 -46.8975 -46.8828 -46.8827 -24.1173 -24.1155
   -23.6920 -23.6904 -23.5785 -23.5769 -23.5635 -23.5598 -23.2216 -23.2215
   -23.1448 -23.1425 -22.8482 -22.8480 -22.7807 -22.7797 -22.4966 -22.4965
   -16.6148 -16.6078 -16.2890 -16.2828 -16.0217 -16.0073 -15.7645 -15.7011
   -15.6874 -15.6408 -15.6137 -15.6113 -15.5671 -15.5434 -15.3202 -15.3159
     0.4832   0.4893   0.7066   0.9117   1.0562   1.1332   1.2071   1.2686
     1.3597   1.4061   1.4933   1.5015   1.5035   1.5145   1.5821   1.6568
     1.6737   1.7300   1.7930   1.8154   1.8477   1.9598   2.0435   2.1259
     2.1787   2.2448   2.3109   2.4110   2.5027   2.6266   2.7083   2.7251
     2.8216   2.8371   2.8591   2.8738   2.8942   2.8982   3.0220   3.0783
     3.2075   3.2220   3.3153   3.3238   3.4745   3.5152   3.6049   3.7195
     7.0579   7.0794   8.1258   8.1501   8.1640   8.1786   9.3293   9.3354
    10.6699  10.6833  10.7298  10.7481  11.0825  11.1043  11.3134  11.3224
    11.5035  11.5213  11.8133  11.8552  11.9245  11.9295  12.4530  12.4782
    12.5843  12.6571

     occupation numbers 
     1.0000   1.0000   1.0000   1.0000   1.0000   1.0000   1.0000   1.0000
     1.0000   1.0000   1.0000   1.0000   1.0000   1.0000   1.0000   1.0000
     1.0000   1.0000   1.0000   1.0000   1.0000   1.0000   1.0000   1.0000
     1.0000   1.0000   1.0000   1.0000   1.0000   1.0000   1.0000   1.0000
     1.0000   1.0000   1.0000   1.0000   1.0000   1.0000   1.0000   1.0000
     1.0000   1.0000   1.0000   1.0000   1.0000   1.0000   1.0000   1.0000
     1.0000   1.0000   1.0000   1.0000   1.0000   1.0000   1.0000   1.0000
     1.0000   1.0000   1.0000   1.0000   1.0000   1.0000   1.0000   1.0000
     1.0000   1.0000   1.0000   1.0000   1.0000   1.0000   1.0000   1.0000
     1.0000   1.0000   1.0000   1.0000   1.0000   1.0000   1.0000   1.0000
     1.0000   1.0000   1.0000   1.0000   1.0000   1.0000   1.0000   1.0000
     1.0000   1.0000   1.0000   1.0000   1.0000   1.0000   0.9413   0.9180
     0.0000   0.0000   0.0000   0.0000   0.0000   0.0000   0.0000   0.0000
     0.0000   0.0000   0.0000   0.0000   0.0000   0.0000   0.0000   0.0000
     0.0000   0.0000

          k = 0.0000 0.3333 0.0000 ( 33414 PWs)   bands (ev):

   -47.1399 -47.1398 -46.8918 -46.8918 -46.8827 -46.8827 -24.1878 -24.1873
   -23.7284 -23.7269 -23.6580 -23.6565 -23.5961 -23.5870 -23.1731 -23.1731
   -23.1271 -23.1270 -22.7845 -22.7843 -22.6295 -22.6287 -22.5038 -22.5035
   -16.7085 -16.6807 -16.2262 -16.2233 -16.0370 -15.9630 -15.9615 -15.9069
   -15.8238 -15.7875 -15.5109 -15.4685 -15.3826 -15.3564 -15.3350 -15.3308
     0.5540   0.5889   0.7971   0.8244   0.8605   0.8942   1.0574   1.1063
     1.1790   1.1950   1.3172   1.4040   1.4068   1.6605   1.6657   1.7484
     1.7790   1.8011   1.8348   1.8933   1.9145   1.9401   2.0064   2.0981
     2.1597   2.2697   2.4405   2.4931   2.5978   2.6128   2.7070   2.7716
     2.8047   2.8329   2.8925   2.9399   2.9517   2.9922   3.0266   3.1059
     3.1206   3.2640   3.2897   3.4448   3.5456   3.5662   3.6097   3.6328
     7.1332   7.1539   8.0602   8.0618   8.1060   8.1486   9.4210   9.4559
    10.6808  10.6941  10.7360  10.7484  11.2460  11.3036  11.3365  11.4303
    11.4952  11.5014  11.9809  11.9961  12.0400  12.2804  12.3838  12.4056
    12.5429  12.8665

     occupation numbers 
     1.0000   1.0000   1.0000   1.0000   1.0000   1.0000   1.0000   1.0000
     1.0000   1.0000   1.0000   1.0000   1.0000   1.0000   1.0000   1.0000
     1.0000   1.0000   1.0000   1.0000   1.0000   1.0000   1.0000   1.0000
     1.0000   1.0000   1.0000   1.0000   1.0000   1.0000   1.0000   1.0000
     1.0000   1.0000   1.0000   1.0000   1.0000   1.0000   1.0000   1.0000
     1.0000   1.0000   1.0000   1.0000   1.0000   1.0000   1.0000   1.0000
     1.0000   1.0000   1.0000   1.0000   1.0000   1.0000   1.0000   1.0000
     1.0000   1.0000   1.0000   1.0000   1.0000   1.0000   1.0000   1.0000
     1.0000   1.0000   1.0000   1.0000   1.0000   1.0000   1.0000   1.0000
     1.0000   1.0000   1.0000   1.0000   1.0000   1.0000   1.0000   1.0000
     1.0000   1.0000   1.0000   1.0000   1.0000   1.0000   1.0000   1.0000
     1.0000   1.0000   1.0000   1.0000   1.0000   1.0000   0.1519   0.0219
     0.0000   0.0000   0.0000   0.0000   0.0000   0.0000   0.0000   0.0000
     0.0000   0.0000   0.0000   0.0000   0.0000   0.0000   0.0000   0.0000
     0.0000   0.0000

          k = 0.0000 0.3333 0.1012 ( 33425 PWs)   bands (ev):

   -47.1399 -47.1398 -46.8918 -46.8918 -46.8827 -46.8827 -24.1881 -24.1870
   -23.7284 -23.7270 -23.6580 -23.6566 -23.5955 -23.5876 -23.1736 -23.1726
   -23.1275 -23.1266 -22.7845 -22.7843 -22.6294 -22.6288 -22.5038 -22.5035
   -16.7064 -16.6819 -16.2274 -16.2248 -16.0380 -15.9618 -15.9590 -15.9087
   -15.8238 -15.7889 -15.5061 -15.4683 -15.3800 -15.3570 -15.3377 -15.3331
     0.5461   0.5949   0.7829   0.8136   0.8514   0.9184   1.0609   1.1086
     1.1747   1.2181   1.3115   1.4010   1.4267   1.6415   1.6781   1.7350
     1.7534   1.7936   1.8522   1.9092   1.9100   1.9552   2.0283   2.0820
     2.1505   2.2759   2.4374   2.4801   2.5768   2.6191   2.6897   2.7599
     2.8089   2.8310   2.8981   2.9478   2.9665   2.9971   3.0350   3.0946
     3.1374   3.2485   3.3028   3.4416   3.5409   3.5691   3.6092   3.6334
     7.1311   7.1551   8.0550   8.0695   8.1064   8.1456   9.4236   9.4545
    10.6821  10.6941  10.7358  10.7464  11.2518  11.3017  11.3415  11.4319
    11.4925  11.4993  11.9819  11.9950  12.0465  12.2378  12.3927  12.4076
    12.6036  12.8586

     occupation numbers 
     1.0000   1.0000   1.0000   1.0000   1.0000   1.0000   1.0000   1.0000
     1.0000   1.0000   1.0000   1.0000   1.0000   1.0000   1.0000   1.0000
     1.0000   1.0000   1.0000   1.0000   1.0000   1.0000   1.0000   1.0000
     1.0000   1.0000   1.0000   1.0000   1.0000   1.0000   1.0000   1.0000
     1.0000   1.0000   1.0000   1.0000   1.0000   1.0000   1.0000   1.0000
     1.0000   1.0000   1.0000   1.0000   1.0000   1.0000   1.0000   1.0000
     1.0000   1.0000   1.0000   1.0000   1.0000   1.0000   1.0000   1.0000
     1.0000   1.0000   1.0000   1.0000   1.0000   1.0000   1.0000   1.0000
     1.0000   1.0000   1.0000   1.0000   1.0000   1.0000   1.0000   1.0000
     1.0000   1.0000   1.0000   1.0000   1.0000   1.0000   1.0000   1.0000
     1.0000   1.0000   1.0000   1.0000   1.0000   1.0000   1.0000   1.0000
[...]
     hartree contribution      =     435.25481218 Ry
     xc contribution           =    -230.74798185 Ry
     ewald contribution        =    -967.86007211 Ry
     DFT-D3 Dispersion         =      -0.21459402 Ry

     convergence has been achieved in  15 iterations

     Forces acting on atoms (cartesian axes, Ry/au):

     atom    1 type  1   force =    -0.00015325   -0.00000000    0.00027861
     atom    2 type  1   force =     0.00007663   -0.00013272    0.00027861
     atom    3 type  1   force =     0.00007663    0.00013272    0.00027861
     atom    4 type  1   force =     0.00015325    0.00000000   -0.00027861
     atom    5 type  1   force =    -0.00007663    0.00013272   -0.00027861
     atom    6 type  1   force =    -0.00007663   -0.00013272   -0.00027861
     atom    7 type  2   force =     0.00000000   -0.00000000   -0.00019837
     atom    8 type  2   force =    -0.00020311    0.00000000   -0.00043442
     atom    9 type  2   force =     0.00010155   -0.00017590   -0.00043442
     atom   10 type  2   force =     0.00010155    0.00017590   -0.00043442
     atom   11 type  2   force =    -0.00000000   -0.00000000    0.00012297
     atom   12 type  2   force =    -0.00006372   -0.00000000   -0.00010751
     atom   13 type  2   force =     0.00003186   -0.00005518   -0.00010751
     atom   14 type  2   force =     0.00003186    0.00005518   -0.00010751
     atom   15 type  2   force =     0.00006372    0.00000000    0.00010751
     atom   16 type  2   force =    -0.00003186    0.00005518    0.00010751
     atom   17 type  2   force =    -0.00003186   -0.00005518    0.00010751
     atom   18 type  2   force =     0.00000000   -0.00000000   -0.00012297
     atom   19 type  2   force =     0.00020311    0.00000000    0.00043442
     atom   20 type  2   force =    -0.00010155    0.00017590    0.00043442
     atom   21 type  2   force =    -0.00010155   -0.00017590    0.00043442
     atom   22 type  2   force =    -0.00000000   -0.00000000    0.00019837
     The non-local contrib.  to forces
     atom    1 type  1   force =    -0.37480505   -0.00000000   -0.05474877
     atom    2 type  1   force =     0.18740253   -0.32459070   -0.05474877
     atom    3 type  1   force =     0.18740253    0.32459070   -0.05474877
     atom    4 type  1   force =     0.37480505   -0.00000000    0.05474877
     atom    5 type  1   force =    -0.18740253    0.32459070    0.05474877
     atom    6 type  1   force =    -0.18740253   -0.32459070    0.05474877
     atom    7 type  2   force =    -0.00000000    0.00000000    1.51970659
     atom    8 type  2   force =    -0.61872030    0.00000000    0.94754134
     atom    9 type  2   force =     0.30936015   -0.53582750    0.94754134
     atom   10 type  2   force =     0.30936015    0.53582750    0.94754134
     atom   11 type  2   force =     0.00000000    0.00000000   -1.09137126
     atom   12 type  2   force =     0.79636774    0.00000000   -1.16380563
     atom   13 type  2   force =    -0.39818387    0.68967469   -1.16380563
     atom   14 type  2   force =    -0.39818387   -0.68967469   -1.16380563
     atom   15 type  2   force =    -0.79636774   -0.00000000    1.16380563
     atom   16 type  2   force =     0.39818387   -0.68967469    1.16380563
     atom   17 type  2   force =     0.39818387    0.68967469    1.16380563
     atom   18 type  2   force =    -0.00000000   -0.00000000    1.09137126
     atom   19 type  2   force =     0.61872030   -0.00000000   -0.94754134
     atom   20 type  2   force =    -0.30936015    0.53582750   -0.94754134
     atom   21 type  2   force =    -0.30936015   -0.53582750   -0.94754134
     atom   22 type  2   force =    -0.00000000    0.00000000   -1.51970659
     The ionic contribution  to forces
     atom    1 type  1   force =     7.09145472   -0.00000054   -1.79005618
     atom    2 type  1   force =    -3.54572688    6.14138021   -1.79005618
     atom    3 type  1   force =    -3.54572782   -6.14137966   -1.79005618
     atom    4 type  1   force =    -7.09145472    0.00000054    1.79005618
     atom    5 type  1   force =     3.54572688   -6.14138021    1.79005618
     atom    6 type  1   force =     3.54572782    6.14137966    1.79005618
     atom    7 type  2   force =     0.00000000   -0.00000000  -15.11729605
     atom    8 type  2   force =     7.65539339   -0.00000079  -10.50634834
     atom    9 type  2   force =    -3.82769602    6.62976554  -10.50634835
     atom   10 type  2   force =    -3.82769739   -6.62976475  -10.50634835
     atom   11 type  2   force =    -0.00000000   -0.00000000   11.99651629
     atom   12 type  2   force =    -9.53100865   -0.00000048   10.23942551
     atom   13 type  2   force =     4.76550473   -8.25409538   10.23942550
     atom   14 type  2   force =     4.76550391    8.25409585   10.23942550
     atom   15 type  2   force =     9.53100865    0.00000048  -10.23942551
     atom   16 type  2   force =    -4.76550473    8.25409538  -10.23942550
     atom   17 type  2   force =    -4.76550391   -8.25409585  -10.23942550
     atom   18 type  2   force =     0.00000000    0.00000000  -11.99651629
     atom   19 type  2   force =    -7.65539339    0.00000079   10.50634834
     atom   20 type  2   force =     3.82769602   -6.62976554   10.50634835
     atom   21 type  2   force =     3.82769739    6.62976475   10.50634835
     atom   22 type  2   force =    -0.00000000   -0.00000000   15.11729605
     The local contribution  to forces
     atom    1 type  1   force =    -6.71580860   -0.00000302    1.84494607
     atom    2 type  1   force =     3.35790697   -5.81605937    1.84494607
     atom    3 type  1   force =     3.35790173    5.81606239    1.84494607
     atom    4 type  1   force =     6.71580860    0.00000302   -1.84494607
     atom    5 type  1   force =    -3.35790697    5.81605937   -1.84494607
     atom    6 type  1   force =    -3.35790173   -5.81606239   -1.84494607
     atom    7 type  2   force =     0.00000000    0.00000000   13.59813937
     atom    8 type  2   force =    -7.03697928   -0.00000324    9.55868900
     atom    9 type  2   force =     3.51849239   -6.09420116    9.55868901
     atom   10 type  2   force =     3.51848677    6.09420440    9.55868901
     atom   11 type  2   force =    -0.00000000   -0.00000000  -10.90563811
     atom   12 type  2   force =     8.73494068   -0.00000346   -9.07617647
     atom   13 type  2   force =    -4.36746735    7.56468226   -9.07617647
     atom   14 type  2   force =    -4.36747333   -7.56467880   -9.07617647
     atom   15 type  2   force =    -8.73494068    0.00000346    9.07617647
     atom   16 type  2   force =     4.36746735   -7.56468226    9.07617647
     atom   17 type  2   force =     4.36747333    7.56467880    9.07617647
     atom   18 type  2   force =     0.00000000    0.00000000   10.90563811
     atom   19 type  2   force =     7.03697928    0.00000324   -9.55868900
     atom   20 type  2   force =    -3.51849239    6.09420116   -9.55868901
     atom   21 type  2   force =    -3.51848677   -6.09420440   -9.55868901
     atom   22 type  2   force =    -0.00000000   -0.00000000  -13.59813937
     The core correction contribution to forces
     atom    1 type  1   force =     0.00000000    0.00000000    0.00000000
     atom    2 type  1   force =     0.00000000    0.00000000    0.00000000
     atom    3 type  1   force =     0.00000000    0.00000000    0.00000000
     atom    4 type  1   force =     0.00000000    0.00000000    0.00000000
     atom    5 type  1   force =     0.00000000    0.00000000    0.00000000
     atom    6 type  1   force =     0.00000000    0.00000000    0.00000000
     atom    7 type  2   force =     0.00000000    0.00000000    0.00000000
     atom    8 type  2   force =     0.00000000    0.00000000    0.00000000
     atom    9 type  2   force =     0.00000000    0.00000000    0.00000000
     atom   10 type  2   force =     0.00000000    0.00000000    0.00000000
     atom   11 type  2   force =     0.00000000    0.00000000    0.00000000
     atom   12 type  2   force =     0.00000000    0.00000000    0.00000000
     atom   13 type  2   force =     0.00000000    0.00000000    0.00000000
     atom   14 type  2   force =     0.00000000    0.00000000    0.00000000
     atom   15 type  2   force =     0.00000000    0.00000000    0.00000000
     atom   16 type  2   force =     0.00000000    0.00000000    0.00000000
     atom   17 type  2   force =     0.00000000    0.00000000    0.00000000
     atom   18 type  2   force =     0.00000000    0.00000000    0.00000000
     atom   19 type  2   force =     0.00000000    0.00000000    0.00000000
     atom   20 type  2   force =     0.00000000    0.00000000    0.00000000
     atom   21 type  2   force =     0.00000000    0.00000000    0.00000000
     atom   22 type  2   force =     0.00000000    0.00000000    0.00000000
     The Hubbard contrib.    to forces
     atom    1 type  1   force =     0.00000000    0.00000000    0.00000000
     atom    2 type  1   force =     0.00000000    0.00000000    0.00000000
     atom    3 type  1   force =     0.00000000    0.00000000    0.00000000
     atom    4 type  1   force =     0.00000000    0.00000000    0.00000000
     atom    5 type  1   force =     0.00000000    0.00000000    0.00000000
     atom    6 type  1   force =     0.00000000    0.00000000    0.00000000
     atom    7 type  2   force =     0.00000000    0.00000000    0.00000000
     atom    8 type  2   force =     0.00000000    0.00000000    0.00000000
     atom    9 type  2   force =     0.00000000    0.00000000    0.00000000
     atom   10 type  2   force =     0.00000000    0.00000000    0.00000000
     atom   11 type  2   force =     0.00000000    0.00000000    0.00000000
     atom   12 type  2   force =     0.00000000    0.00000000    0.00000000
     atom   13 type  2   force =     0.00000000    0.00000000    0.00000000
     atom   14 type  2   force =     0.00000000    0.00000000    0.00000000
     atom   15 type  2   force =     0.00000000    0.00000000    0.00000000
     atom   16 type  2   force =     0.00000000    0.00000000    0.00000000
     atom   17 type  2   force =     0.00000000    0.00000000    0.00000000
     atom   18 type  2   force =     0.00000000    0.00000000    0.00000000
     atom   19 type  2   force =     0.00000000    0.00000000    0.00000000
     atom   20 type  2   force =     0.00000000    0.00000000    0.00000000
     atom   21 type  2   force =     0.00000000    0.00000000    0.00000000
     atom   22 type  2   force =     0.00000000    0.00000000    0.00000000
     The SCF correction term to forces
     atom    1 type  1   force =     0.00000040   -0.00000000   -0.00000127
     atom    2 type  1   force =    -0.00000020    0.00000035   -0.00000127
     atom    3 type  1   force =    -0.00000020   -0.00000035   -0.00000127
     atom    4 type  1   force =    -0.00000040    0.00000000    0.00000127
     atom    5 type  1   force =     0.00000020   -0.00000035    0.00000127
     atom    6 type  1   force =     0.00000020    0.00000035    0.00000127
     atom    7 type  2   force =     0.00000000   -0.00000000   -0.00000012
     atom    8 type  2   force =    -0.00000012   -0.00000000   -0.00000022
     atom    9 type  2   force =     0.00000006   -0.00000010   -0.00000022
     atom   10 type  2   force =     0.00000006    0.00000010   -0.00000022
     atom   11 type  2   force =    -0.00000000   -0.00000000   -0.00000060
     atom   12 type  2   force =    -0.00000000   -0.00000000   -0.00000050
     atom   13 type  2   force =     0.00000000   -0.00000000   -0.00000050
     atom   14 type  2   force =     0.00000000    0.00000000   -0.00000050
     atom   15 type  2   force =     0.00000000    0.00000000    0.00000050
     atom   16 type  2   force =    -0.00000000    0.00000000    0.00000050
     atom   17 type  2   force =    -0.00000000   -0.00000000    0.00000050
     atom   18 type  2   force =     0.00000000    0.00000000    0.00000060
     atom   19 type  2   force =     0.00000012    0.00000000    0.00000022
     atom   20 type  2   force =    -0.00000006    0.00000010    0.00000022
     atom   21 type  2   force =    -0.00000006   -0.00000010    0.00000022
     atom   22 type  2   force =    -0.00000000    0.00000000    0.00000012

     DFT-D3 dispersion contribution to forces:
     atom    1 type  1   force =    -0.00099469    0.00000000    0.00013876
     atom    2 type  1   force =     0.00049734   -0.00086143    0.00013876
     atom    3 type  1   force =     0.00049734    0.00086143    0.00013876
     atom    4 type  1   force =     0.00099469   -0.00000000   -0.00013876
     atom    5 type  1   force =    -0.00049734    0.00086143   -0.00013876
     atom    6 type  1   force =    -0.00049734   -0.00086143   -0.00013876
     atom    7 type  2   force =     0.00000000   -0.00000000   -0.00074815
     atom    8 type  2   force =     0.00010316    0.00000000   -0.00031620
     atom    9 type  2   force =    -0.00005158    0.00008934   -0.00031620
     atom   10 type  2   force =    -0.00005158   -0.00008934   -0.00031620
     atom   11 type  2   force =     0.00000000   -0.00000000    0.00061666
     atom   12 type  2   force =    -0.00036349    0.00000000    0.00044959
     atom   13 type  2   force =     0.00018174   -0.00031479    0.00044959
     atom   14 type  2   force =     0.00018174    0.00031479    0.00044959
     atom   15 type  2   force =     0.00036349   -0.00000000   -0.00044959
     atom   16 type  2   force =    -0.00018174    0.00031479   -0.00044959
     atom   17 type  2   force =    -0.00018174   -0.00031479   -0.00044959
     atom   18 type  2   force =    -0.00000000   -0.00000000   -0.00061666
     atom   19 type  2   force =    -0.00010316   -0.00000000    0.00031620
     atom   20 type  2   force =     0.00005158   -0.00008934    0.00031620
     atom   21 type  2   force =     0.00005158    0.00008934    0.00031620
     atom   22 type  2   force =    -0.00000000    0.00000000    0.00074815

     Total force =     0.001480     Total SCF correction =     0.000004

     DFT-D3 dispersion Force =     0.003256


     Computing stress (Cartesian axis) and pressure

          total   stress  (Ry/bohr**3)                   (kbar)     P=       16.45
   0.00012140  -0.00000000  -0.00000000           17.86       -0.00       -0.00
   0.00000000   0.00012140   0.00000000            0.00       17.86        0.00
   0.00000000  -0.00000000   0.00009266            0.00       -0.00       13.63

     kinetic stress (kbar)  35986.48     -0.00      0.00
                               -0.00  35986.48      0.00
                                0.00      0.00  35970.54

     local   stress (kbar) -25998.07      0.00     -0.00
                                0.00 -25998.07      0.00
                               -0.00      0.00  -5341.89

     nonloc. stress (kbar)   1771.30     -0.00     -0.00
                               -0.00   1771.30     -0.00
                               -0.00      0.00   1801.72

     hartree stress (kbar)  13405.18     -0.00     -0.00
                               -0.00  13405.18      0.00
                               -0.00      0.00   5529.83

     exc-cor stress (kbar)  -5416.08      0.00     -0.00
                                0.00  -5416.08     -0.00
                               -0.00     -0.00  -5428.10

     corecor stress (kbar)      0.00      0.00      0.00
                                0.00      0.00      0.00
                                0.00      0.00      0.00

     ewald   stress (kbar) -19709.86     -0.00      0.00
                               -0.00 -19709.86     -0.00
                                0.00     -0.00 -32493.98

     hubbard stress (kbar)      0.00      0.00      0.00
                                0.00      0.00      0.00
                                0.00      0.00      0.00

     DFT-D   stress (kbar)    -21.09     -0.00      0.00
                               -0.00    -21.09     -0.00
                                0.00     -0.00    -24.50

     XDM     stress (kbar)      0.00      0.00      0.00
                                0.00      0.00      0.00
                                0.00      0.00      0.00

     dft-nl  stress (kbar)      0.00      0.00      0.00
                                0.00      0.00      0.00
                                0.00      0.00      0.00

     TS-vdW  stress (kbar)      0.00      0.00      0.00
                                0.00      0.00      0.00
                                0.00      0.00      0.00

     MDB     stress (kbar)      0.00      0.00      0.00
                                0.00      0.00      0.00
                                0.00      0.00      0.00

     3D-RISM stress (kbar)      0.00      0.00      0.00
                                0.00      0.00      0.00
                                0.00      0.00      0.00


     Writing all to output data dir ./out/Nb3F8.save/ :
     XML data file, charge density, pseudopotentials, collected wavefunctions

     init_run     :      2.38s CPU      2.53s WALL (       1 calls)
     electrons    :     90.11s CPU     92.26s WALL (       1 calls)
     forces       :      0.22s CPU      0.24s WALL (       1 calls)
     force_dftd3  :      0.03s CPU      0.04s WALL (       1 calls)
     stress       :      2.29s CPU      2.36s WALL (       1 calls)
     stres_dftd3  :      0.03s CPU      0.04s WALL (       1 calls)

     Called by init_run:
     wfcinit      :      1.19s CPU      1.23s WALL (       1 calls)
     wfcinit:wfcr :      1.16s CPU      1.20s WALL (       3 calls)
     potinit      :      0.15s CPU      0.19s WALL (       1 calls)
     hinit0       :      0.93s CPU      0.96s WALL (       1 calls)

     Called by electrons:
     c_bands      :     75.32s CPU     76.64s WALL (      16 calls)
     sum_band     :     12.59s CPU     12.88s WALL (      16 calls)
     v_of_rho     :      1.75s CPU      2.09s WALL (      16 calls)
     v_h          :      0.12s CPU      0.13s WALL (      16 calls)
     v_xc         :      1.63s CPU      1.95s WALL (      16 calls)
     mix_rho      :      0.12s CPU      0.13s WALL (      16 calls)
     energy_dftd3 :      0.01s CPU      0.01s WALL (       1 calls)

     Called by c_bands:
     init_us_2    :      0.33s CPU      0.34s WALL (     105 calls)
     cegterg      :     65.60s CPU     66.80s WALL (      48 calls)

     Called by sum_band:
     sum_band:wei :      0.03s CPU      0.03s WALL (      16 calls)
     sum_band:loo :     11.94s CPU     12.17s WALL (      16 calls)
     sum_band:buf :      0.08s CPU      0.08s WALL (      48 calls)
     sum_band:ini :      0.19s CPU      0.19s WALL (      48 calls)

     Called by *egterg:
     cdiaghg      :      5.53s CPU      5.58s WALL (     334 calls)
     cegterg:over :      1.96s CPU      2.00s WALL (     289 calls)
     cegterg:upda :      0.87s CPU      0.89s WALL (     289 calls)
     cegterg:last :      1.31s CPU      1.34s WALL (     123 calls)
     h_psi        :     56.17s CPU     57.20s WALL (     340 calls)
     g_psi        :      0.03s CPU      0.03s WALL (     289 calls)

     Called by h_psi:
     h_psi:calbec :      1.80s CPU      1.83s WALL (     340 calls)
     vloc_psi     :     53.07s CPU     53.98s WALL (     340 calls)
     add_vuspsi   :      1.20s CPU      1.21s WALL (     340 calls)

     General routines
     calbec       :      2.32s CPU      2.35s WALL (     355 calls)
     fft          :      1.40s CPU      1.47s WALL (     168 calls)
     ffts         :      0.08s CPU      0.09s WALL (      16 calls)
     fftw         :     52.34s CPU     53.21s WALL (   39284 calls)

     Parallel routines

     PWSCF        :    121.76s CPU    145.00s WALL


   This run was terminated on:  17:12:10  21May2025            

=------------------------------------------------------------------------------=
   JOB DONE.
=------------------------------------------------------------------------------=
