 
             +---------------------------------------------------+
             |                                                   |
             |                   WANNIER90                       |
             |                                                   |
             +---------------------------------------------------+
             |                                                   |
             |        Welcome to the Maximally-Localized         |
             |        Generalized Wannier Functions code         |
             |            http://www.wannier.org                 |
             |                                                   |
             |  Wannier90 Authors:                               |
             |    Arash A. Mostofi   (Imperial College London)   |
             |    Jonathan R. Yates  (University of Oxford)      |
             |    Young-Su Lee       (KIST, S. Korea)            |
             |                                                   |
             |  Wannier90 Contributors:                          |
             |    Matthew Shelley    (Imperial College London)   |
             |    Nicolas Poilvert   (MIT)                       |
             |                                                   |
             |  Wannier77 Authors:                               |
             |    Nicola Marzari     (University of Oxford)      |
             |    Ivo Souza          (UC Berkeley)               |
             |    David Vanderbilt   (Rutgers University)        |
             |                                                   |
             |  Please cite                                      |
             |                                                   |
             |  [ref] "Wannier90: A Tool for Obtaining Maximally |
             |         Localised Wannier Functions"              |
             |        A. A. Mostofi, J. R. Yates, Y.-S. Lee,     |
             |        I. Souza, D. Vanderbilt and N. Marzari     |
             |        Comput. Phys. Commun. 178, 685 (2008)      |
             |                                                   |
             |  in any publications arising from the use of      |
             |  this code. For the method please cite            |
             |                                                   |
             |  [ref] "Maximally Localized Generalised Wannier   |
             |         Functions for Composite Energy Bands"     |
             |         N. Marzari and D. Vanderbilt              |
             |         Phys. Rev. B 56 12847 (1997)              |
             |                                                   |
             |  [ref] "Maximally Localized Wannier Functions     |
             |         for Entangled Energy Bands"               |
             |         I. Souza, N. Marzari and D. Vanderbilt    |
             |         Phys. Rev. B 65 035109 (2001)             |
             |                                                   |
             |                                                   |
             | Copyright (c) 1996-2010                           |
             |        A. A. Mostofi, J. R. Yates, Y.-S. Lee,     |
             |        I. Souza, D. Vanderbilt and N. Marzari     |
             |                                                   |
             |        Release: 1.2        24th Jan 2010          |
             |                                                   |
             | This program is free software; you can            |
             | redistribute it and/or modify it under the terms  |
             | of the GNU General Public License as published by |
             | the Free Software Foundation; either version 2 of |
             | the License, or (at your option) any later version|
             |                                                   |
             | This program is distributed in the hope that it   |
             | will be useful, but WITHOUT ANY WARRANTY; without |
             | even the implied warranty of MERCHANTABILITY or   |
             | FITNESS FOR A PARTICULAR PURPOSE. See the GNU     |
             | General Public License for more details.          |
             |                                                   |
             | You should have received a copy of the GNU General|
             | Public License along with this program; if not,   |
             | write to the Free Software Foundation, Inc.,      |
             | 675 Mass Ave, Cambridge, MA 02139, USA.           |
             |                                                   |
             +---------------------------------------------------+
             |    Execution started on 12Jun2024 at 22:59:10     |
             +---------------------------------------------------+

 Wannier90 is running in LIBRARY MODE

 Setting up k-point neighbours...

 Ignoring <mp_grid> in input file
 Ignoring <unit_cell_cart> in input file
 Ignoring <kpoints> in input file
 Ignoring <atoms_cart> in input file
 
                                    ------
                                    SYSTEM
                                    ------
 
                              Lattice Vectors (Ang)
                    a_1     6.581793   3.800000   0.000000
                    a_2    -6.581793   3.800000   0.000000
                    a_3    -4.387862   0.000000  13.905000
 
                   Unit Cell Volume:     695.55073  (Ang^3)
 
                        Reciprocal-Space Vectors (Ang^-1)
                    b_1     0.477316   0.826735   0.150622
                    b_2    -0.477316   0.826735  -0.150622
                    b_3     0.000000   0.000000   0.451865
  
 *----------------------------------------------------------------------------*
 |   Site       Fractional Coordinate          Cartesian Coordinate (Ang)     |
 +----------------------------------------------------------------------------+
 | Nb   1   0.54760   0.45240   0.24780   |   -0.46073   3.80000   3.44566    |
 | Nb   2   0.54760   0.84740   0.24780   |   -3.06053   5.30100   3.44566    |
 | Nb   3   0.15260   0.45240   0.24780   |   -3.06053   2.29900   3.44566    |
 | Nb   4   0.45240   0.54760   0.75220   |   -3.92714   3.80000  10.45934    |
 | Nb   5   0.45240   0.15260   0.75220   |   -1.32733   2.29900  10.45934    |
 | Nb   6   0.84740   0.54760   0.75220   |   -1.32733   5.30100  10.45934    |
 | I    1   0.21620   0.78380   0.64860   |   -6.58179   3.80000   9.01878    |
 | I    2   0.78380   0.21620   0.35140   |    2.19393   3.80000   4.88622    |
 | I    3   0.36460   0.63540   0.09380   |   -2.19393   3.80000   1.30429    |
 | I    4   0.63540   0.36460   0.90620   |   -2.19393   3.80000  12.60071    |
 | I    5   0.29260   0.70740   0.38280   |   -4.40980   3.80000   5.32283    |
 | I    6   0.29260   0.20240   0.38280   |   -1.08600   1.88100   5.32283    |
 | I    7   0.79760   0.70740   0.38280   |   -1.08600   5.71900   5.32283    |
 | I    8   0.70740   0.29260   0.61720   |    0.02194   3.80000   8.58217    |
 | I    9   0.70740   0.79760   0.61720   |   -3.30187   5.71900   8.58217    |
 | I   10   0.20240   0.29260   0.61720   |   -3.30187   1.88100   8.58217    |
 | I   11   0.88260   0.11740   0.13680   |    4.43613   3.80000   1.90220    |
 | I   12   0.88260   0.62840   0.13680   |    1.07283   5.74180   1.90220    |
 | I   13   0.37160   0.11740   0.13680   |    1.07283   1.85820   1.90220    |
 | I   14   0.11740   0.88260   0.86320   |   -8.82399   3.80000  12.00280    |
 | I   15   0.11740   0.37160   0.86320   |   -5.46069   1.85820  12.00280    |
 | I   16   0.62840   0.88260   0.86320   |   -5.46069   5.74180  12.00280    |
 *----------------------------------------------------------------------------*
  
                                ------------
                                K-POINT GRID
                                ------------
  
             Grid size = 11 x 11 x 11      Total points = 1331
  
  
 *---------------------------------- MAIN ------------------------------------*
 |  Number of Wannier Functions               :                 2             |
 |  Number of input Bloch states              :               256             |
 |  Output verbosity (1=low, 5=high)          :                 1             |
 |  Timing Level (1=low, 5=high)              :                 1             |
 |  Optimisation (0=memory, 3=speed)          :                 3             |
 |  Length Unit                               :               Ang             |
 |  Post-processing setup (write *.nnkp)      :                 F             |
 |  Using Gamma-only branch of algorithms     :                 F             |
 *----------------------------------------------------------------------------*
 *------------------------------- WANNIERISE ---------------------------------*
 |  Total number of iterations                :            100000             |
 |  Number of CG steps before reset           :                 5             |
 |  Trial step length for line search         :             2.000             |
 |  Convergence tolerence                     :         0.100E-14             |
 |  Convergence window                        :                -1             |
 |  Iterations between writing output         :               100             |
 |  Iterations between backing up to disk     :               100             |
 |  Write r^2_nm to file                      :                 F             |
 |  Write xyz WF centres to file              :                 F             |
 |  Use guiding centre to control phases      :                 F             |
 *----------------------------------------------------------------------------*
 *-------------------------------- PLOTTING ----------------------------------*
 |  Plotting interpolated bandstructure       :                 T             |
 |   Number of K-path sections                :                 7             |
 |   Divisions along first K-path section     :               100             |
 |   Output format                            :           gnuplot             |
 |   Output mode                              :               s-k             |
 *----------------------------------------------------------------------------*
 |   K-space path sections:                                                   |
 |    From:  G    0.000  0.000  0.000     To:  M    0.513  0.000 -0.171       |
 |    From:  M    0.513  0.000 -0.171     To:  K    0.342  0.342  0.000       |
 |    From:  K    0.342  0.342  0.000     To:  G    0.000  0.000  0.000       |
 |    From:  G    0.000  0.000  0.000     To:  A    0.000  0.000  0.500       |
 |    From:  A    0.000  0.000  0.500     To:  L    0.475  0.000  0.342       |
 |    From:  L    0.475  0.000  0.342     To:  G    0.000  0.000  0.000       |
 |    From:  G    0.000  0.000  0.000     To:  H    0.316  0.316  0.500       |
 *----------------------------------------------------------------------------*
 |  Plotting Hamiltonian in WF basis          :                 T             |
 *----------------------------------------------------------------------------*
 Time to read parameters        0.020 (sec)

 *---------------------------------- K-MESH ----------------------------------*
 +----------------------------------------------------------------------------+
 |                    Distance to Nearest-Neighbour Shells                    |
 |                    ------------------------------------                    |
 |          Shell             Distance (Ang^-1)          Multiplicity         |
 |          -----             -----------------          ------------         |
 |             1                   0.041079                      2            |
 |             2                   0.082157                      2            |
 |             3                   0.087858                      6            |
 |             4                   0.091003                      6            |
 |             5                   0.102623                      6            |
 |             6                   0.110539                      6            |
 |             7                   0.123236                      2            |
 |             8                   0.129301                      6            |
 |             9                   0.139754                      6            |
 |            10                   0.150315                      6            |
 |            11                   0.155827                     12            |
 |            12                   0.162114                      6            |
 |            13                   0.164315                      2            |
 |            14                   0.171303                     12            |
 |            15                   0.173835                      6            |
 |            16                   0.174109                      6            |
 |            17                   0.175716                      6            |
 |            18                   0.182006                      6            |
 |            19                   0.186584                      6            |
 |            20                   0.194375                     12            |
 |            21                   0.198036                      6            |
 |            22                   0.198276                      6            |
 |            23                   0.205246                      6            |
 |            24                   0.205393                      2            |
 |            25                   0.210430                      6            |
 |            26                   0.221079                      6            |
 |            27                   0.222697                     12            |
 |            28                   0.229811                      6            |
 |            29                   0.230019                     12            |
 |            30                   0.231238                     12            |
 |            31                   0.235649                      6            |
 |            32                   0.236053                     12            |
 |            33                   0.239601                     12            |
 |            34                   0.246472                      2            |
 |            35                   0.248430                      6            |
 |            36                   0.248622                      6            |
 +----------------------------------------------------------------------------+
 | The b-vectors are chosen automatically                                     |
 | The following shells are used:   1,  3                                     |
 +----------------------------------------------------------------------------+
 |                        Shell   # Nearest-Neighbours                        |
 |                        -----   --------------------                        |
 |                          1               2                                 |
 |                          3               6                                 |
 +----------------------------------------------------------------------------+
 | Completeness relation is fully satisfied [Eq. (B1), PRB 56, 12847 (1997)]  |
 +----------------------------------------------------------------------------+
 |                  b_k Vectors (Ang^-1) and Weights (Ang^2)                  |
 |                  ----------------------------------------                  |
 |            No.         b_k(x)      b_k(y)      b_k(z)        w_b           |
 |            ---        --------------------------------     --------        |
 |             1         0.000000    0.000000    0.041079   281.551373        |
 |             2         0.000000    0.000000   -0.041079   281.551373        |
 |             3         0.043392    0.075158    0.013693    44.258106        |
 |             4        -0.043392   -0.075158   -0.013693    44.258106        |
 |             5         0.043392   -0.075158    0.013693    44.258106        |
 |             6        -0.043392    0.075158   -0.013693    44.258106        |
 |             7        -0.086785    0.000000    0.013693    44.258106        |
 |             8         0.086785   -0.000000   -0.013693    44.258106        |
 +----------------------------------------------------------------------------+
 |                           b_k Directions (Ang^-1)                          |
 |                           -----------------------                          |
 |            No.           x           y           z                         |
 |            ---        --------------------------------                     |
 |             1         0.000000    0.000000    0.041079                     |
 |             2         0.043392    0.075158    0.013693                     |
 |             3         0.043392   -0.075158    0.013693                     |
 |             4        -0.086785    0.000000    0.013693                     |
 +----------------------------------------------------------------------------+
  
 Time to write kmesh            0.637 (sec)

 Finished setting up k-point neighbours.

 Returning to pw2wannier90 at 22:59:10 

 Resuming Wannier90 at 23:15:42 

 Ignoring <mp_grid> in input file
 Ignoring <unit_cell_cart> in input file
 Ignoring <kpoints> in input file
 Ignoring <atoms_cart> in input file
 
                                    ------
                                    SYSTEM
                                    ------
 
                              Lattice Vectors (Ang)
                    a_1     6.581793   3.800000   0.000000
                    a_2    -6.581793   3.800000   0.000000
                    a_3    -4.387862   0.000000  13.905000
 
                   Unit Cell Volume:     695.55073  (Ang^3)
 
                        Reciprocal-Space Vectors (Ang^-1)
                    b_1     0.477316   0.826735   0.150622
                    b_2    -0.477316   0.826735  -0.150622
                    b_3     0.000000   0.000000   0.451865
  
 *----------------------------------------------------------------------------*
 |   Site       Fractional Coordinate          Cartesian Coordinate (Ang)     |
 +----------------------------------------------------------------------------+
 | Nb   1   0.54760   0.45240   0.24780   |   -0.46073   3.80000   3.44566    |
 | Nb   2   0.54760   0.84740   0.24780   |   -3.06053   5.30100   3.44566    |
 | Nb   3   0.15260   0.45240   0.24780   |   -3.06053   2.29900   3.44566    |
 | Nb   4   0.45240   0.54760   0.75220   |   -3.92714   3.80000  10.45934    |
 | Nb   5   0.45240   0.15260   0.75220   |   -1.32733   2.29900  10.45934    |
 | Nb   6   0.84740   0.54760   0.75220   |   -1.32733   5.30100  10.45934    |
 | I    1   0.21620   0.78380   0.64860   |   -6.58179   3.80000   9.01878    |
 | I    2   0.78380   0.21620   0.35140   |    2.19393   3.80000   4.88622    |
 | I    3   0.36460   0.63540   0.09380   |   -2.19393   3.80000   1.30429    |
 | I    4   0.63540   0.36460   0.90620   |   -2.19393   3.80000  12.60071    |
 | I    5   0.29260   0.70740   0.38280   |   -4.40980   3.80000   5.32283    |
 | I    6   0.29260   0.20240   0.38280   |   -1.08600   1.88100   5.32283    |
 | I    7   0.79760   0.70740   0.38280   |   -1.08600   5.71900   5.32283    |
 | I    8   0.70740   0.29260   0.61720   |    0.02194   3.80000   8.58217    |
 | I    9   0.70740   0.79760   0.61720   |   -3.30187   5.71900   8.58217    |
 | I   10   0.20240   0.29260   0.61720   |   -3.30187   1.88100   8.58217    |
 | I   11   0.88260   0.11740   0.13680   |    4.43613   3.80000   1.90220    |
 | I   12   0.88260   0.62840   0.13680   |    1.07283   5.74180   1.90220    |
 | I   13   0.37160   0.11740   0.13680   |    1.07283   1.85820   1.90220    |
 | I   14   0.11740   0.88260   0.86320   |   -8.82399   3.80000  12.00280    |
 | I   15   0.11740   0.37160   0.86320   |   -5.46069   1.85820  12.00280    |
 | I   16   0.62840   0.88260   0.86320   |   -5.46069   5.74180  12.00280    |
 *----------------------------------------------------------------------------*
  
                                ------------
                                K-POINT GRID
                                ------------
  
             Grid size = 11 x 11 x 11      Total points = 1331
  
  
 *---------------------------------- MAIN ------------------------------------*
 |  Number of Wannier Functions               :                 2             |
 |  Number of input Bloch states              :               256             |
 |  Output verbosity (1=low, 5=high)          :                 1             |
 |  Timing Level (1=low, 5=high)              :                 1             |
 |  Optimisation (0=memory, 3=speed)          :                 3             |
 |  Length Unit                               :               Ang             |
 |  Post-processing setup (write *.nnkp)      :                 F             |
 |  Using Gamma-only branch of algorithms     :                 F             |
 *----------------------------------------------------------------------------*
 *------------------------------- WANNIERISE ---------------------------------*
 |  Total number of iterations                :            100000             |
 |  Number of CG steps before reset           :                 5             |
 |  Trial step length for line search         :             2.000             |
 |  Convergence tolerence                     :         0.100E-14             |
 |  Convergence window                        :                -1             |
 |  Iterations between writing output         :               100             |
 |  Iterations between backing up to disk     :               100             |
 |  Write r^2_nm to file                      :                 F             |
 |  Write xyz WF centres to file              :                 F             |
 |  Use guiding centre to control phases      :                 F             |
 *----------------------------------------------------------------------------*
 *------------------------------- DISENTANGLE --------------------------------*
 |  Using band disentanglement                :                 T             |
 |  Total number of iterations                :             10000             |
 |  Mixing ratio                              :             0.500             |
 |  Convergence tolerence                     :         1.000E-15             |
 |  Convergence window                        :                 3             |
 *----------------------------------------------------------------------------*
 *-------------------------------- PLOTTING ----------------------------------*
 |  Plotting interpolated bandstructure       :                 T             |
 |   Number of K-path sections                :                 7             |
 |   Divisions along first K-path section     :               100             |
 |   Output format                            :           gnuplot             |
 |   Output mode                              :               s-k             |
 *----------------------------------------------------------------------------*
 |   K-space path sections:                                                   |
 |    From:  G    0.000  0.000  0.000     To:  M    0.513  0.000 -0.171       |
 |    From:  M    0.513  0.000 -0.171     To:  K    0.342  0.342  0.000       |
 |    From:  K    0.342  0.342  0.000     To:  G    0.000  0.000  0.000       |
 |    From:  G    0.000  0.000  0.000     To:  A    0.000  0.000  0.500       |
 |    From:  A    0.000  0.000  0.500     To:  L    0.475  0.000  0.342       |
 |    From:  L    0.475  0.000  0.342     To:  G    0.000  0.000  0.000       |
 |    From:  G    0.000  0.000  0.000     To:  H    0.316  0.316  0.500       |
 *----------------------------------------------------------------------------*
 |  Plotting Hamiltonian in WF basis          :                 T             |
 *----------------------------------------------------------------------------*
 Time to read parameters        0.020 (sec)

 *---------------------------------- K-MESH ----------------------------------*
 +----------------------------------------------------------------------------+
 |                    Distance to Nearest-Neighbour Shells                    |
 |                    ------------------------------------                    |
 |          Shell             Distance (Ang^-1)          Multiplicity         |
 |          -----             -----------------          ------------         |
 |             1                   0.041079                      2            |
 |             2                   0.082157                      2            |
 |             3                   0.087858                      6            |
 |             4                   0.091003                      6            |
 |             5                   0.102623                      6            |
 |             6                   0.110539                      6            |
 |             7                   0.123236                      2            |
 |             8                   0.129301                      6            |
 |             9                   0.139754                      6            |
 |            10                   0.150315                      6            |
 |            11                   0.155827                     12            |
 |            12                   0.162114                      6            |
 |            13                   0.164315                      2            |
 |            14                   0.171303                     12            |
 |            15                   0.173835                      6            |
 |            16                   0.174109                      6            |
 |            17                   0.175716                      6            |
 |            18                   0.182006                      6            |
 |            19                   0.186584                      6            |
 |            20                   0.194375                     12            |
 |            21                   0.198036                      6            |
 |            22                   0.198276                      6            |
 |            23                   0.205246                      6            |
 |            24                   0.205393                      2            |
 |            25                   0.210430                      6            |
 |            26                   0.221079                      6            |
 |            27                   0.222697                     12            |
 |            28                   0.229811                      6            |
 |            29                   0.230019                     12            |
 |            30                   0.231238                     12            |
 |            31                   0.235649                      6            |
 |            32                   0.236053                     12            |
 |            33                   0.239601                     12            |
 |            34                   0.246472                      2            |
 |            35                   0.248430                      6            |
 |            36                   0.248622                      6            |
 +----------------------------------------------------------------------------+
 | The b-vectors are chosen automatically                                     |
 | The following shells are used:   1,  3                                     |
 +----------------------------------------------------------------------------+
 |                        Shell   # Nearest-Neighbours                        |
 |                        -----   --------------------                        |
 |                          1               2                                 |
 |                          3               6                                 |
 +----------------------------------------------------------------------------+
 | Completeness relation is fully satisfied [Eq. (B1), PRB 56, 12847 (1997)]  |
 +----------------------------------------------------------------------------+
 |                  b_k Vectors (Ang^-1) and Weights (Ang^2)                  |
 |                  ----------------------------------------                  |
 |            No.         b_k(x)      b_k(y)      b_k(z)        w_b           |
 |            ---        --------------------------------     --------        |
 |             1         0.000000    0.000000    0.041079   281.551373        |
 |             2         0.000000    0.000000   -0.041079   281.551373        |
 |             3         0.043392    0.075158    0.013693    44.258106        |
 |             4        -0.043392   -0.075158   -0.013693    44.258106        |
 |             5         0.043392   -0.075158    0.013693    44.258106        |
 |             6        -0.043392    0.075158   -0.013693    44.258106        |
 |             7        -0.086785    0.000000    0.013693    44.258106        |
 |             8         0.086785   -0.000000   -0.013693    44.258106        |
 +----------------------------------------------------------------------------+
 |                           b_k Directions (Ang^-1)                          |
 |                           -----------------------                          |
 |            No.           x           y           z                         |
 |            ---        --------------------------------                     |
 |             1         0.000000    0.000000    0.041079                     |
 |             2         0.043392    0.075158    0.013693                     |
 |             3         0.043392   -0.075158    0.013693                     |
 |             4        -0.086785    0.000000    0.013693                     |
 +----------------------------------------------------------------------------+
  
 Time to get kmesh              0.635 (sec)

 *------------------------------- DISENTANGLE --------------------------------*
 +----------------------------------------------------------------------------+
 |                              Energy  Windows                               |
 |                              ---------------                               |
 |                   Outer:  -26.49866  to   22.87942  (eV)                   |
 |                   Inner:    4.96000  to    5.87000  (eV)                   |
 +----------------------------------------------------------------------------+
   Number of target bands to extract:    2

                   Unitarised projection of Wannier functions                  
                   ------------------------------------------                  
   A_mn = <psi_m|g_n> --> S = A.A^+ --> U = S^-1/2.A
   In dis_project... done
   Using an inner window (linner = T)
   In dis_proj_froz... done

                   Extraction of optimally-connected subspace                  
                   ------------------------------------------                  
 +---------------------------------------------------------------------+<-- DIS
 |  Iter     Omega_I(i-1)      Omega_I(i)      Delta (frac.)    Time   |<-- DIS
 +---------------------------------------------------------------------+<-- DIS
       1      28.29712957      28.29712957      -3.331E-16    996.38    <-- DIS
       2      28.29712957      28.29712957      -3.331E-16   1000.23    <-- DIS
       3      28.29712957      28.29712957      -3.331E-16   1004.08    <-- DIS

             <<<      Delta < 1.000E-15  over  3 iterations     >>>
             <<< Disentanglement convergence criteria satisfied >>>

        Final Omega_I    28.29712957 (Ang^2)

 +----------------------------------------------------------------------------+


 Writing checkpoint file wannier90.chk... done

 Time to disentangle           19.529 (sec)
 
 *------------------------------- WANNIERISE ---------------------------------*
 +--------------------------------------------------------------------+<-- CONV
 | Iter  Delta Spread     RMS Gradient      Spread (Ang^2)      Time  |<-- CONV
 +--------------------------------------------------------------------+<-- CONV
 
 ------------------------------------------------------------------------------
 Initial State
  WF centre and spread    1  ( -2.193931,  3.800000, 10.134272 )    24.85922524
  WF centre and spread    2  ( -2.193931,  3.800000,  3.770728 )    24.85922524
  Sum of centres and spreads ( -4.387862,  7.600000, 13.905000 )    49.71845047
 
      0     0.497E+02     0.0000000000       49.7184504722    1006.39  <-- CONV
        O_D=     21.3949337 O_OD=      0.0263872 O_TOT=     49.7184505 <-- SPRD
 ------------------------------------------------------------------------------
 Cycle:      1
  WF centre and spread    1  ( -2.193931,  3.800000, 10.134272 )    18.88586214
  WF centre and spread    2  ( -2.193931,  3.800000,  3.770728 )    18.88586214
  Sum of centres and spreads ( -4.387862,  7.600000, 13.905000 )    37.77172428
 
      1    -0.119E+02     4.4381485426       37.7717242762    1006.41  <-- CONV
        O_D=      9.4482075 O_OD=      0.0263872 O_TOT=     37.7717243 <-- SPRD
 Delta: O_D= -0.1194673E+02 O_OD=  0.6974317E-12 O_TOT= -0.1194673E+02 <-- DLTA
 ------------------------------------------------------------------------------
 Cycle:    100
  WF centre and spread    1  ( -2.193931,  3.800000, 10.134272 )    14.36794358
  WF centre and spread    2  ( -2.193931,  3.800000,  3.770728 )    14.36794358
  Sum of centres and spreads ( -4.387862,  7.600000, 13.905000 )    28.73588716
 
    100    -0.767E-12     0.0000178857       28.7358871612    1007.48  <-- CONV
        O_D=      0.4123704 O_OD=      0.0263872 O_TOT=     28.7358872 <-- SPRD
 Delta: O_D= -0.7683854E-12 O_OD= -0.4996004E-15 O_TOT= -0.7673862E-12 <-- DLTA
 ------------------------------------------------------------------------------

 Writing checkpoint file wannier90.chk... done

 Cycle:    200
  WF centre and spread    1  ( -2.193931,  3.800000, 10.134272 )    14.36794358
  WF centre and spread    2  ( -2.193931,  3.800000,  3.770728 )    14.36794358
  Sum of centres and spreads ( -4.387862,  7.600000, 13.905000 )    28.73588716
 
    200    -0.295E-12     0.0000156158       28.7358871611    1008.39  <-- CONV
        O_D=      0.4123704 O_OD=      0.0263872 O_TOT=     28.7358872 <-- SPRD
 Delta: O_D= -0.2943756E-12 O_OD= -0.1595946E-15 O_TOT= -0.2948752E-12 <-- DLTA
 ------------------------------------------------------------------------------

 Writing checkpoint file wannier90.chk... done

 Cycle:    300
  WF centre and spread    1  ( -2.193931,  3.800000, 10.134272 )    14.36794358
  WF centre and spread    2  ( -2.193931,  3.800000,  3.770728 )    14.36794358
  Sum of centres and spreads ( -4.387862,  7.600000, 13.905000 )    28.73588716
 
    300    -0.647E-12     0.0000134322       28.7358871610    1009.32  <-- CONV
        O_D=      0.4123704 O_OD=      0.0263872 O_TOT=     28.7358872 <-- SPRD
 Delta: O_D= -0.6491474E-12 O_OD=  0.3608225E-15 O_TOT= -0.6465939E-12 <-- DLTA
 ------------------------------------------------------------------------------

 Writing checkpoint file wannier90.chk... done

 Cycle:    400
  WF centre and spread    1  ( -2.193931,  3.800000, 10.134272 )    14.36794358
  WF centre and spread    2  ( -2.193931,  3.800000,  3.770728 )    14.36794358
  Sum of centres and spreads ( -4.387862,  7.600000, 13.905000 )    28.73588716
 
    400    -0.377E-12     0.0000124947       28.7358871609    1010.22  <-- CONV
        O_D=      0.4123704 O_OD=      0.0263872 O_TOT=     28.7358872 <-- SPRD
 Delta: O_D= -0.3771983E-12 O_OD= -0.1422473E-15 O_TOT= -0.3765876E-12 <-- DLTA
 ------------------------------------------------------------------------------

 Writing checkpoint file wannier90.chk... done

 Cycle:    500
  WF centre and spread    1  ( -2.193931,  3.800000, 10.134272 )    14.36794358
  WF centre and spread    2  ( -2.193931,  3.800000,  3.770728 )    14.36794358
  Sum of centres and spreads ( -4.387862,  7.600000, 13.905000 )    28.73588716
 
    500    -0.174E-12     0.0000118117       28.7358871609    1011.11  <-- CONV
        O_D=      0.4123704 O_OD=      0.0263872 O_TOT=     28.7358872 <-- SPRD
 Delta: O_D= -0.1729172E-12 O_OD= -0.1214306E-15 O_TOT= -0.1740830E-12 <-- DLTA
 ------------------------------------------------------------------------------

 Writing checkpoint file wannier90.chk... done

 Cycle:    600
  WF centre and spread    1  ( -2.193931,  3.800000, 10.134272 )    14.36794358
  WF centre and spread    2  ( -2.193931,  3.800000,  3.770728 )    14.36794358
  Sum of centres and spreads ( -4.387862,  7.600000, 13.905000 )    28.73588716
 
    600    -0.141E-10     0.0000111257       28.7358871608    1012.01  <-- CONV
        O_D=      0.4123704 O_OD=      0.0263872 O_TOT=     28.7358872 <-- SPRD
 Delta: O_D= -0.1413264E-10 O_OD= -0.1595946E-15 O_TOT= -0.1413270E-10 <-- DLTA
 ------------------------------------------------------------------------------

 Writing checkpoint file wannier90.chk... done

 Cycle:    700
  WF centre and spread    1  ( -2.193931,  3.800000, 10.134272 )    14.36794358
  WF centre and spread    2  ( -2.193931,  3.800000,  3.770728 )    14.36794358
  Sum of centres and spreads ( -4.387862,  7.600000, 13.905000 )    28.73588716
 
    700    -0.220E-12     0.0000096144       28.7358871608    1012.93  <-- CONV
        O_D=      0.4123704 O_OD=      0.0263872 O_TOT=     28.7358872 <-- SPRD
 Delta: O_D= -0.2222111E-12 O_OD=  0.4336809E-15 O_TOT= -0.2202682E-12 <-- DLTA
 ------------------------------------------------------------------------------

 Writing checkpoint file wannier90.chk... done

 Cycle:    800
  WF centre and spread    1  ( -2.193931,  3.800000, 10.134272 )    14.36794358
  WF centre and spread    2  ( -2.193931,  3.800000,  3.770728 )    14.36794358
  Sum of centres and spreads ( -4.387862,  7.600000, 13.905000 )    28.73588716
 
    800    -0.995E-13     0.0000090554       28.7358871608    1013.83  <-- CONV
        O_D=      0.4123704 O_OD=      0.0263872 O_TOT=     28.7358872 <-- SPRD
 Delta: O_D= -0.9975354E-13 O_OD= -0.1006140E-15 O_TOT= -0.9947598E-13 <-- DLTA
 ------------------------------------------------------------------------------

 Writing checkpoint file wannier90.chk... done

 Cycle:    900
  WF centre and spread    1  ( -2.193931,  3.800000, 10.134272 )    14.36794358
  WF centre and spread    2  ( -2.193931,  3.800000,  3.770728 )    14.36794358
  Sum of centres and spreads ( -4.387862,  7.600000, 13.905000 )    28.73588716
 
    900    -0.256E-12     0.0000083673       28.7358871607    1014.73  <-- CONV
        O_D=      0.4123704 O_OD=      0.0263872 O_TOT=     28.7358872 <-- SPRD
 Delta: O_D= -0.2539635E-12 O_OD=  0.1110223E-15 O_TOT= -0.2557954E-12 <-- DLTA
 ------------------------------------------------------------------------------

 Writing checkpoint file wannier90.chk... done

 Cycle:   1000
  WF centre and spread    1  ( -2.193931,  3.800000, 10.134272 )    14.36794358
  WF centre and spread    2  ( -2.193931,  3.800000,  3.770728 )    14.36794358
  Sum of centres and spreads ( -4.387862,  7.600000, 13.905000 )    28.73588716
 
   1000    -0.139E-12     0.0000076082       28.7358871607    1015.66  <-- CONV
        O_D=      0.4123704 O_OD=      0.0263872 O_TOT=     28.7358872 <-- SPRD
 Delta: O_D= -0.1392220E-12 O_OD=  0.1075529E-15 O_TOT= -0.1385558E-12 <-- DLTA
 ------------------------------------------------------------------------------

 Writing checkpoint file wannier90.chk... done

 Cycle:   1100
  WF centre and spread    1  ( -2.193931,  3.800000, 10.134272 )    14.36794358
  WF centre and spread    2  ( -2.193931,  3.800000,  3.770728 )    14.36794358
  Sum of centres and spreads ( -4.387862,  7.600000, 13.905000 )    28.73588716
 
   1100    -0.675E-13     0.0000071824       28.7358871607    1016.56  <-- CONV
        O_D=      0.4123704 O_OD=      0.0263872 O_TOT=     28.7358872 <-- SPRD
 Delta: O_D= -0.6233902E-13 O_OD= -0.3920475E-15 O_TOT= -0.6750156E-13 <-- DLTA
 ------------------------------------------------------------------------------

 Writing checkpoint file wannier90.chk... done

 Cycle:   1200
  WF centre and spread    1  ( -2.193931,  3.800000, 10.134272 )    14.36794358
  WF centre and spread    2  ( -2.193931,  3.800000,  3.770728 )    14.36794358
  Sum of centres and spreads ( -4.387862,  7.600000, 13.905000 )    28.73588716
 
   1200    -0.167E-12     0.0000067083       28.7358871607    1017.48  <-- CONV
        O_D=      0.4123704 O_OD=      0.0263872 O_TOT=     28.7358872 <-- SPRD
 Delta: O_D= -0.1664224E-12 O_OD=  0.1110223E-15 O_TOT= -0.1669775E-12 <-- DLTA
 ------------------------------------------------------------------------------

 Writing checkpoint file wannier90.chk... done

 Cycle:   1300
  WF centre and spread    1  ( -2.193931,  3.800000, 10.134272 )    14.36794358
  WF centre and spread    2  ( -2.193931,  3.800000,  3.770728 )    14.36794358
  Sum of centres and spreads ( -4.387862,  7.600000, 13.905000 )    28.73588716
 
   1300    -0.995E-13     0.0000061749       28.7358871607    1018.42  <-- CONV
        O_D=      0.4123704 O_OD=      0.0263872 O_TOT=     28.7358872 <-- SPRD
 Delta: O_D= -0.9686696E-13 O_OD= -0.6938894E-17 O_TOT= -0.9947598E-13 <-- DLTA
 ------------------------------------------------------------------------------

 Writing checkpoint file wannier90.chk... done

 Cycle:   1400
  WF centre and spread    1  ( -2.193931,  3.800000, 10.134272 )    14.36794358
  WF centre and spread    2  ( -2.193931,  3.800000,  3.770728 )    14.36794358
  Sum of centres and spreads ( -4.387862,  7.600000, 13.905000 )    28.73588716
 
   1400    -0.391E-13     0.0000057328       28.7358871607    1019.36  <-- CONV
        O_D=      0.4123704 O_OD=      0.0263872 O_TOT=     28.7358872 <-- SPRD
 Delta: O_D= -0.3741452E-13 O_OD= -0.4163336E-15 O_TOT= -0.3907985E-13 <-- DLTA
 ------------------------------------------------------------------------------

 Writing checkpoint file wannier90.chk... done

 Cycle:   1500
  WF centre and spread    1  ( -2.193931,  3.800000, 10.134272 )    14.36794358
  WF centre and spread    2  ( -2.193931,  3.800000,  3.770728 )    14.36794358
  Sum of centres and spreads ( -4.387862,  7.600000, 13.905000 )    28.73588716
 
   1500    -0.103E-12     0.0000053480       28.7358871606    1020.29  <-- CONV
        O_D=      0.4123704 O_OD=      0.0263872 O_TOT=     28.7358872 <-- SPRD
 Delta: O_D= -0.1008638E-12 O_OD=  0.2255141E-15 O_TOT= -0.1030287E-12 <-- DLTA
 ------------------------------------------------------------------------------

 Writing checkpoint file wannier90.chk... done

 Cycle:   1600
  WF centre and spread    1  ( -2.193931,  3.800000, 10.134272 )    14.36794358
  WF centre and spread    2  ( -2.193931,  3.800000,  3.770728 )    14.36794358
  Sum of centres and spreads ( -4.387862,  7.600000, 13.905000 )    28.73588716
 
   1600    -0.568E-13     0.0000049472       28.7358871606    1021.25  <-- CONV
        O_D=      0.4123704 O_OD=      0.0263872 O_TOT=     28.7358872 <-- SPRD
 Delta: O_D= -0.6133982E-13 O_OD=  0.1595946E-15 O_TOT= -0.5684342E-13 <-- DLTA
 ------------------------------------------------------------------------------

 Writing checkpoint file wannier90.chk... done

 Cycle:   1700
  WF centre and spread    1  ( -2.193931,  3.800000, 10.134272 )    14.36794358
  WF centre and spread    2  ( -2.193931,  3.800000,  3.770728 )    14.36794358
  Sum of centres and spreads ( -4.387862,  7.600000, 13.905000 )    28.73588716
 
   1700    -0.249E-13     0.0000046175       28.7358871606    1022.20  <-- CONV
        O_D=      0.4123704 O_OD=      0.0263872 O_TOT=     28.7358872 <-- SPRD
 Delta: O_D= -0.2364775E-13 O_OD= -0.3122502E-16 O_TOT= -0.2486900E-13 <-- DLTA
 ------------------------------------------------------------------------------

 Writing checkpoint file wannier90.chk... done

 Cycle:   1800
  WF centre and spread    1  ( -2.193931,  3.800000, 10.134272 )    14.36794358
  WF centre and spread    2  ( -2.193931,  3.800000,  3.770728 )    14.36794358
  Sum of centres and spreads ( -4.387862,  7.600000, 13.905000 )    28.73588716
 
   1800    -0.711E-13     0.0000043564       28.7358871606    1023.12  <-- CONV
        O_D=      0.4123704 O_OD=      0.0263872 O_TOT=     28.7358872 <-- SPRD
 Delta: O_D= -0.7049916E-13 O_OD= -0.2463307E-15 O_TOT= -0.7105427E-13 <-- DLTA
 ------------------------------------------------------------------------------

 Writing checkpoint file wannier90.chk... done

 Cycle:   1900
  WF centre and spread    1  ( -2.193931,  3.800000, 10.134272 )    14.36794358
  WF centre and spread    2  ( -2.193931,  3.800000,  3.770728 )    14.36794358
  Sum of centres and spreads ( -4.387862,  7.600000, 13.905000 )    28.73588716
 
   1900    -0.462E-13     0.0000041343       28.7358871606    1024.05  <-- CONV
        O_D=      0.4123704 O_OD=      0.0263872 O_TOT=     28.7358872 <-- SPRD
 Delta: O_D= -0.4379830E-13 O_OD=  0.2324529E-15 O_TOT= -0.4618528E-13 <-- DLTA
 ------------------------------------------------------------------------------

 Writing checkpoint file wannier90.chk... done

 Cycle:   2000
  WF centre and spread    1  ( -2.193931,  3.800000, 10.134272 )    14.36794358
  WF centre and spread    2  ( -2.193931,  3.800000,  3.770728 )    14.36794358
  Sum of centres and spreads ( -4.387862,  7.600000, 13.905000 )    28.73588716
 
   2000    -0.178E-13     0.0000039240       28.7358871606    1024.96  <-- CONV
        O_D=      0.4123704 O_OD=      0.0263872 O_TOT=     28.7358872 <-- SPRD
 Delta: O_D= -0.1693090E-13 O_OD= -0.3573530E-15 O_TOT= -0.1776357E-13 <-- DLTA
 ------------------------------------------------------------------------------

 Writing checkpoint file wannier90.chk... done

 Cycle:   2100
  WF centre and spread    1  ( -2.193931,  3.800000, 10.134272 )    14.36794358
  WF centre and spread    2  ( -2.193931,  3.800000,  3.770728 )    14.36794358
  Sum of centres and spreads ( -4.387862,  7.600000, 13.905000 )    28.73588716
 
   2100    -0.533E-13     0.0000037177       28.7358871606    1025.88  <-- CONV
        O_D=      0.4123704 O_OD=      0.0263872 O_TOT=     28.7358872 <-- SPRD
 Delta: O_D= -0.4934941E-13 O_OD= -0.4579670E-15 O_TOT= -0.5329071E-13 <-- DLTA
 ------------------------------------------------------------------------------

 Writing checkpoint file wannier90.chk... done

 Cycle:   2200
  WF centre and spread    1  ( -2.193931,  3.800000, 10.134272 )    14.36794358
  WF centre and spread    2  ( -2.193931,  3.800000,  3.770728 )    14.36794358
  Sum of centres and spreads ( -4.387862,  7.600000, 13.905000 )    28.73588716
 
   2200    -0.249E-13     0.0000035161       28.7358871606    1026.82  <-- CONV
        O_D=      0.4123704 O_OD=      0.0263872 O_TOT=     28.7358872 <-- SPRD
 Delta: O_D= -0.2614575E-13 O_OD= -0.1353084E-15 O_TOT= -0.2486900E-13 <-- DLTA
 ------------------------------------------------------------------------------

 Writing checkpoint file wannier90.chk... done

 Cycle:   2300
  WF centre and spread    1  ( -2.193931,  3.800000, 10.134272 )    14.36794358
  WF centre and spread    2  ( -2.193931,  3.800000,  3.770728 )    14.36794358
  Sum of centres and spreads ( -4.387862,  7.600000, 13.905000 )    28.73588716
 
   2300    -0.107E-13     0.0000033357       28.7358871606    1027.75  <-- CONV
        O_D=      0.4123704 O_OD=      0.0263872 O_TOT=     28.7358872 <-- SPRD
 Delta: O_D= -0.9214851E-14 O_OD= -0.1457168E-15 O_TOT= -0.1065814E-13 <-- DLTA
 ------------------------------------------------------------------------------

 Writing checkpoint file wannier90.chk... done

 Cycle:   2400
  WF centre and spread    1  ( -2.193931,  3.800000, 10.134272 )    14.36794358
  WF centre and spread    2  ( -2.193931,  3.800000,  3.770728 )    14.36794358
  Sum of centres and spreads ( -4.387862,  7.600000, 13.905000 )    28.73588716
 
   2400    -0.355E-13     0.0000031580       28.7358871606    1028.66  <-- CONV
        O_D=      0.4123704 O_OD=      0.0263872 O_TOT=     28.7358872 <-- SPRD
 Delta: O_D= -0.3674838E-13 O_OD= -0.3365364E-15 O_TOT= -0.3552714E-13 <-- DLTA
 ------------------------------------------------------------------------------

 Writing checkpoint file wannier90.chk... done

 Cycle:   2500
  WF centre and spread    1  ( -2.193931,  3.800000, 10.134272 )    14.36794358
  WF centre and spread    2  ( -2.193931,  3.800000,  3.770728 )    14.36794358
  Sum of centres and spreads ( -4.387862,  7.600000, 13.905000 )    28.73588716
 
   2500    -0.178E-13     0.0000029997       28.7358871606    1029.58  <-- CONV
        O_D=      0.4123704 O_OD=      0.0263872 O_TOT=     28.7358872 <-- SPRD
 Delta: O_D= -0.1809664E-13 O_OD=  0.9020562E-16 O_TOT= -0.1776357E-13 <-- DLTA
 ------------------------------------------------------------------------------

 Writing checkpoint file wannier90.chk... done

 Cycle:   2600
  WF centre and spread    1  ( -2.193931,  3.800000, 10.134272 )    14.36794358
  WF centre and spread    2  ( -2.193931,  3.800000,  3.770728 )    14.36794358
  Sum of centres and spreads ( -4.387862,  7.600000, 13.905000 )    28.73588716
 
   2600    -0.711E-14     0.0000028483       28.7358871606    1030.47  <-- CONV
        O_D=      0.4123704 O_OD=      0.0263872 O_TOT=     28.7358872 <-- SPRD
 Delta: O_D= -0.8271162E-14 O_OD= -0.1006140E-15 O_TOT= -0.7105427E-14 <-- DLTA
 ------------------------------------------------------------------------------

 Writing checkpoint file wannier90.chk... done

 Cycle:   2700
  WF centre and spread    1  ( -2.193931,  3.800000, 10.134272 )    14.36794358
  WF centre and spread    2  ( -2.193931,  3.800000,  3.770728 )    14.36794358
  Sum of centres and spreads ( -4.387862,  7.600000, 13.905000 )    28.73588716
 
   2700    -0.320E-13     0.0000027049       28.7358871606    1031.40  <-- CONV
        O_D=      0.4123704 O_OD=      0.0263872 O_TOT=     28.7358872 <-- SPRD
 Delta: O_D= -0.3458345E-13 O_OD=  0.1040834E-16 O_TOT= -0.3197442E-13 <-- DLTA
 ------------------------------------------------------------------------------

 Writing checkpoint file wannier90.chk... done

 Cycle:   2800
  WF centre and spread    1  ( -2.193931,  3.800000, 10.134272 )    14.36794358
  WF centre and spread    2  ( -2.193931,  3.800000,  3.770728 )    14.36794358
  Sum of centres and spreads ( -4.387862,  7.600000, 13.905000 )    28.73588716
 
   2800    -0.178E-13     0.0000025697       28.7358871606    1032.30  <-- CONV
        O_D=      0.4123704 O_OD=      0.0263872 O_TOT=     28.7358872 <-- SPRD
 Delta: O_D= -0.1937339E-13 O_OD= -0.5551115E-16 O_TOT= -0.1776357E-13 <-- DLTA
 ------------------------------------------------------------------------------

 Writing checkpoint file wannier90.chk... done

 Cycle:   2900
  WF centre and spread    1  ( -2.193931,  3.800000, 10.134272 )    14.36794358
  WF centre and spread    2  ( -2.193931,  3.800000,  3.770728 )    14.36794358
  Sum of centres and spreads ( -4.387862,  7.600000, 13.905000 )    28.73588716
 
   2900    -0.355E-14     0.0000024405       28.7358871606    1033.21  <-- CONV
        O_D=      0.4123704 O_OD=      0.0263872 O_TOT=     28.7358872 <-- SPRD
 Delta: O_D= -0.2609024E-14 O_OD=  0.0000000E+00 O_TOT= -0.3552714E-14 <-- DLTA
 ------------------------------------------------------------------------------

 Writing checkpoint file wannier90.chk... done

 Cycle:   3000
  WF centre and spread    1  ( -2.193931,  3.800000, 10.134272 )    14.36794358
  WF centre and spread    2  ( -2.193931,  3.800000,  3.770728 )    14.36794358
  Sum of centres and spreads ( -4.387862,  7.600000, 13.905000 )    28.73588716
 
   3000    -0.213E-13     0.0000023199       28.7358871606    1034.12  <-- CONV
        O_D=      0.4123704 O_OD=      0.0263872 O_TOT=     28.7358872 <-- SPRD
 Delta: O_D= -0.1931788E-13 O_OD=  0.3191891E-15 O_TOT= -0.2131628E-13 <-- DLTA
 ------------------------------------------------------------------------------

 Writing checkpoint file wannier90.chk... done

 Cycle:   3100
  WF centre and spread    1  ( -2.193931,  3.800000, 10.134272 )    14.36794358
  WF centre and spread    2  ( -2.193931,  3.800000,  3.770728 )    14.36794358
  Sum of centres and spreads ( -4.387862,  7.600000, 13.905000 )    28.73588716
 
   3100    -0.107E-13     0.0000022052       28.7358871606    1035.02  <-- CONV
        O_D=      0.4123704 O_OD=      0.0263872 O_TOT=     28.7358872 <-- SPRD
 Delta: O_D= -0.8271162E-14 O_OD= -0.1179612E-15 O_TOT= -0.1065814E-13 <-- DLTA
 ------------------------------------------------------------------------------

 Writing checkpoint file wannier90.chk... done

 Cycle:   3200
  WF centre and spread    1  ( -2.193931,  3.800000, 10.134272 )    14.36794358
  WF centre and spread    2  ( -2.193931,  3.800000,  3.770728 )    14.36794358
  Sum of centres and spreads ( -4.387862,  7.600000, 13.905000 )    28.73588716
 
   3200     0.000E+00     0.0000020952       28.7358871606    1035.92  <-- CONV
        O_D=      0.4123704 O_OD=      0.0263872 O_TOT=     28.7358872 <-- SPRD
 Delta: O_D=  0.9436896E-15 O_OD= -0.1526557E-15 O_TOT=  0.0000000E+00 <-- DLTA
 ------------------------------------------------------------------------------

 Writing checkpoint file wannier90.chk... done

 Cycle:   3300
  WF centre and spread    1  ( -2.193931,  3.800000, 10.134272 )    14.36794358
  WF centre and spread    2  ( -2.193931,  3.800000,  3.770728 )    14.36794358
  Sum of centres and spreads ( -4.387862,  7.600000, 13.905000 )    28.73588716
 
   3300    -0.107E-13     0.0000019938       28.7358871606    1036.84  <-- CONV
        O_D=      0.4123704 O_OD=      0.0263872 O_TOT=     28.7358872 <-- SPRD
 Delta: O_D= -0.1271205E-13 O_OD=  0.2567391E-15 O_TOT= -0.1065814E-13 <-- DLTA
 ------------------------------------------------------------------------------

 Writing checkpoint file wannier90.chk... done

 Cycle:   3400
  WF centre and spread    1  ( -2.193931,  3.800000, 10.134272 )    14.36794358
  WF centre and spread    2  ( -2.193931,  3.800000,  3.770728 )    14.36794358
  Sum of centres and spreads ( -4.387862,  7.600000, 13.905000 )    28.73588716
 
   3400    -0.142E-13     0.0000018976       28.7358871606    1037.75  <-- CONV
        O_D=      0.4123704 O_OD=      0.0263872 O_TOT=     28.7358872 <-- SPRD
 Delta: O_D= -0.1265654E-13 O_OD= -0.4059253E-15 O_TOT= -0.1421085E-13 <-- DLTA
 ------------------------------------------------------------------------------

 Writing checkpoint file wannier90.chk... done

 Cycle:   3500
  WF centre and spread    1  ( -2.193931,  3.800000, 10.134272 )    14.36794358
  WF centre and spread    2  ( -2.193931,  3.800000,  3.770728 )    14.36794358
  Sum of centres and spreads ( -4.387862,  7.600000, 13.905000 )    28.73588716
 
   3500     0.355E-14     0.0000018047       28.7358871606    1038.67  <-- CONV
        O_D=      0.4123704 O_OD=      0.0263872 O_TOT=     28.7358872 <-- SPRD
 Delta: O_D=  0.1665335E-14 O_OD= -0.9020562E-16 O_TOT=  0.3552714E-14 <-- DLTA
 ------------------------------------------------------------------------------

 Writing checkpoint file wannier90.chk... done

 Cycle:   3600
  WF centre and spread    1  ( -2.193931,  3.800000, 10.134272 )    14.36794358
  WF centre and spread    2  ( -2.193931,  3.800000,  3.770728 )    14.36794358
  Sum of centres and spreads ( -4.387862,  7.600000, 13.905000 )    28.73588716
 
   3600    -0.142E-13     0.0000017172       28.7358871606    1039.57  <-- CONV
        O_D=      0.4123704 O_OD=      0.0263872 O_TOT=     28.7358872 <-- SPRD
 Delta: O_D= -0.1526557E-13 O_OD=  0.7979728E-16 O_TOT= -0.1421085E-13 <-- DLTA
 ------------------------------------------------------------------------------

 Writing checkpoint file wannier90.chk... done

 Cycle:   3700
  WF centre and spread    1  ( -2.193931,  3.800000, 10.134272 )    14.36794358
  WF centre and spread    2  ( -2.193931,  3.800000,  3.770728 )    14.36794358
  Sum of centres and spreads ( -4.387862,  7.600000, 13.905000 )    28.73588716
 
   3700    -0.107E-13     0.0000016341       28.7358871606    1040.48  <-- CONV
        O_D=      0.4123704 O_OD=      0.0263872 O_TOT=     28.7358872 <-- SPRD
 Delta: O_D= -0.9048318E-14 O_OD= -0.3226586E-15 O_TOT= -0.1065814E-13 <-- DLTA
 ------------------------------------------------------------------------------

 Writing checkpoint file wannier90.chk... done

 Cycle:   3800
  WF centre and spread    1  ( -2.193931,  3.800000, 10.134272 )    14.36794358
  WF centre and spread    2  ( -2.193931,  3.800000,  3.770728 )    14.36794358
  Sum of centres and spreads ( -4.387862,  7.600000, 13.905000 )    28.73588716
 
   3800    -0.711E-14     0.0000015545       28.7358871606    1041.40  <-- CONV
        O_D=      0.4123704 O_OD=      0.0263872 O_TOT=     28.7358872 <-- SPRD
 Delta: O_D= -0.6494805E-14 O_OD=  0.2810252E-15 O_TOT= -0.7105427E-14 <-- DLTA
 ------------------------------------------------------------------------------

 Writing checkpoint file wannier90.chk... done

 Cycle:   3900
  WF centre and spread    1  ( -2.193931,  3.800000, 10.134272 )    14.36794358
  WF centre and spread    2  ( -2.193931,  3.800000,  3.770728 )    14.36794358
  Sum of centres and spreads ( -4.387862,  7.600000, 13.905000 )    28.73588716
 
   3900    -0.107E-13     0.0000014782       28.7358871606    1042.29  <-- CONV
        O_D=      0.4123704 O_OD=      0.0263872 O_TOT=     28.7358872 <-- SPRD
 Delta: O_D= -0.8604228E-14 O_OD= -0.2428613E-15 O_TOT= -0.1065814E-13 <-- DLTA
 ------------------------------------------------------------------------------

 Writing checkpoint file wannier90.chk... done

 Cycle:   4000
  WF centre and spread    1  ( -2.193931,  3.800000, 10.134272 )    14.36794358
  WF centre and spread    2  ( -2.193931,  3.800000,  3.770728 )    14.36794358
  Sum of centres and spreads ( -4.387862,  7.600000, 13.905000 )    28.73588716
 
   4000    -0.711E-14     0.0000014068       28.7358871606    1043.20  <-- CONV
        O_D=      0.4123704 O_OD=      0.0263872 O_TOT=     28.7358872 <-- SPRD
 Delta: O_D= -0.7105427E-14 O_OD=  0.2671474E-15 O_TOT= -0.7105427E-14 <-- DLTA
 ------------------------------------------------------------------------------

 Writing checkpoint file wannier90.chk... done

 Cycle:   4100
  WF centre and spread    1  ( -2.193931,  3.800000, 10.134272 )    14.36794358
  WF centre and spread    2  ( -2.193931,  3.800000,  3.770728 )    14.36794358
  Sum of centres and spreads ( -4.387862,  7.600000, 13.905000 )    28.73588716
 
   4100     0.355E-14     0.0000013397       28.7358871606    1044.12  <-- CONV
        O_D=      0.4123704 O_OD=      0.0263872 O_TOT=     28.7358872 <-- SPRD
 Delta: O_D=  0.5606626E-14 O_OD=  0.1665335E-15 O_TOT=  0.3552714E-14 <-- DLTA
 ------------------------------------------------------------------------------

 Writing checkpoint file wannier90.chk... done

 Cycle:   4200
  WF centre and spread    1  ( -2.193931,  3.800000, 10.134272 )    14.36794358
  WF centre and spread    2  ( -2.193931,  3.800000,  3.770728 )    14.36794358
  Sum of centres and spreads ( -4.387862,  7.600000, 13.905000 )    28.73588716
 
   4200    -0.711E-14     0.0000012739       28.7358871606    1045.01  <-- CONV
        O_D=      0.4123704 O_OD=      0.0263872 O_TOT=     28.7358872 <-- SPRD
 Delta: O_D= -0.6938894E-14 O_OD= -0.2844947E-15 O_TOT= -0.7105427E-14 <-- DLTA
 ------------------------------------------------------------------------------

 Writing checkpoint file wannier90.chk... done

 Cycle:   4300
  WF centre and spread    1  ( -2.193931,  3.800000, 10.134272 )    14.36794358
  WF centre and spread    2  ( -2.193931,  3.800000,  3.770728 )    14.36794358
  Sum of centres and spreads ( -4.387862,  7.600000, 13.905000 )    28.73588716
 
   4300    -0.711E-14     0.0000012138       28.7358871606    1045.93  <-- CONV
        O_D=      0.4123704 O_OD=      0.0263872 O_TOT=     28.7358872 <-- SPRD
 Delta: O_D= -0.6827872E-14 O_OD=  0.6938894E-16 O_TOT= -0.7105427E-14 <-- DLTA
 ------------------------------------------------------------------------------

 Writing checkpoint file wannier90.chk... done

 Cycle:   4400
  WF centre and spread    1  ( -2.193931,  3.800000, 10.134272 )    14.36794358
  WF centre and spread    2  ( -2.193931,  3.800000,  3.770728 )    14.36794358
  Sum of centres and spreads ( -4.387862,  7.600000, 13.905000 )    28.73588716
 
   4400     0.355E-14     0.0000011536       28.7358871606    1046.82  <-- CONV
        O_D=      0.4123704 O_OD=      0.0263872 O_TOT=     28.7358872 <-- SPRD
 Delta: O_D=  0.1054712E-14 O_OD= -0.1040834E-15 O_TOT=  0.3552714E-14 <-- DLTA
 ------------------------------------------------------------------------------

 Writing checkpoint file wannier90.chk... done

 Cycle:   4500
  WF centre and spread    1  ( -2.193931,  3.800000, 10.134272 )    14.36794358
  WF centre and spread    2  ( -2.193931,  3.800000,  3.770728 )    14.36794358
  Sum of centres and spreads ( -4.387862,  7.600000, 13.905000 )    28.73588716
 
   4500    -0.355E-14     0.0000011001       28.7358871606    1047.75  <-- CONV
        O_D=      0.4123704 O_OD=      0.0263872 O_TOT=     28.7358872 <-- SPRD
 Delta: O_D= -0.2831069E-14 O_OD=  0.3469447E-17 O_TOT= -0.3552714E-14 <-- DLTA
 ------------------------------------------------------------------------------

 Writing checkpoint file wannier90.chk... done

 Cycle:   4600
  WF centre and spread    1  ( -2.193931,  3.800000, 10.134272 )    14.36794358
  WF centre and spread    2  ( -2.193931,  3.800000,  3.770728 )    14.36794358
  Sum of centres and spreads ( -4.387862,  7.600000, 13.905000 )    28.73588716
 
   4600    -0.355E-14     0.0000010468       28.7358871606    1048.65  <-- CONV
        O_D=      0.4123704 O_OD=      0.0263872 O_TOT=     28.7358872 <-- SPRD
 Delta: O_D= -0.2109424E-14 O_OD= -0.1734723E-15 O_TOT= -0.3552714E-14 <-- DLTA
 ------------------------------------------------------------------------------

 Writing checkpoint file wannier90.chk... done

 Cycle:   4700
  WF centre and spread    1  ( -2.193931,  3.800000, 10.134272 )    14.36794358
  WF centre and spread    2  ( -2.193931,  3.800000,  3.770728 )    14.36794358
  Sum of centres and spreads ( -4.387862,  7.600000, 13.905000 )    28.73588716
 
   4700    -0.355E-14     0.0000010003       28.7358871606    1049.59  <-- CONV
        O_D=      0.4123704 O_OD=      0.0263872 O_TOT=     28.7358872 <-- SPRD
 Delta: O_D= -0.4496403E-14 O_OD=  0.7285839E-16 O_TOT= -0.3552714E-14 <-- DLTA
 ------------------------------------------------------------------------------

 Writing checkpoint file wannier90.chk... done

 Cycle:   4800
  WF centre and spread    1  ( -2.193931,  3.800000, 10.134272 )    14.36794358
  WF centre and spread    2  ( -2.193931,  3.800000,  3.770728 )    14.36794358
  Sum of centres and spreads ( -4.387862,  7.600000, 13.905000 )    28.73588716
 
   4800    -0.355E-14     0.0000009520       28.7358871606    1050.49  <-- CONV
        O_D=      0.4123704 O_OD=      0.0263872 O_TOT=     28.7358872 <-- SPRD
 Delta: O_D= -0.4107825E-14 O_OD=  0.2428613E-16 O_TOT= -0.3552714E-14 <-- DLTA
 ------------------------------------------------------------------------------

 Writing checkpoint file wannier90.chk... done

 Cycle:   4900
  WF centre and spread    1  ( -2.193931,  3.800000, 10.134272 )    14.36794358
  WF centre and spread    2  ( -2.193931,  3.800000,  3.770728 )    14.36794358
  Sum of centres and spreads ( -4.387862,  7.600000, 13.905000 )    28.73588716
 
   4900     0.355E-14     0.0000009067       28.7358871606    1051.39  <-- CONV
        O_D=      0.4123704 O_OD=      0.0263872 O_TOT=     28.7358872 <-- SPRD
 Delta: O_D=  0.4996004E-15 O_OD=  0.4198031E-15 O_TOT=  0.3552714E-14 <-- DLTA
 ------------------------------------------------------------------------------

 Writing checkpoint file wannier90.chk... done

 Cycle:   5000
  WF centre and spread    1  ( -2.193931,  3.800000, 10.134272 )    14.36794358
  WF centre and spread    2  ( -2.193931,  3.800000,  3.770728 )    14.36794358
  Sum of centres and spreads ( -4.387862,  7.600000, 13.905000 )    28.73588716
 
   5000     0.355E-14     0.0000008630       28.7358871606    1052.30  <-- CONV
        O_D=      0.4123704 O_OD=      0.0263872 O_TOT=     28.7358872 <-- SPRD
 Delta: O_D=  0.2553513E-14 O_OD=  0.4510281E-16 O_TOT=  0.3552714E-14 <-- DLTA
 ------------------------------------------------------------------------------

 Writing checkpoint file wannier90.chk... done

 Cycle:   5100
  WF centre and spread    1  ( -2.193931,  3.800000, 10.134272 )    14.36794358
  WF centre and spread    2  ( -2.193931,  3.800000,  3.770728 )    14.36794358
  Sum of centres and spreads ( -4.387862,  7.600000, 13.905000 )    28.73588716
 
   5100     0.000E+00     0.0000008210       28.7358871606    1053.21  <-- CONV
        O_D=      0.4123704 O_OD=      0.0263872 O_TOT=     28.7358872 <-- SPRD
 Delta: O_D=  0.1110223E-14 O_OD= -0.1804112E-15 O_TOT=  0.0000000E+00 <-- DLTA
 ------------------------------------------------------------------------------

 Writing checkpoint file wannier90.chk... done

 Cycle:   5200
  WF centre and spread    1  ( -2.193931,  3.800000, 10.134272 )    14.36794358
  WF centre and spread    2  ( -2.193931,  3.800000,  3.770728 )    14.36794358
  Sum of centres and spreads ( -4.387862,  7.600000, 13.905000 )    28.73588716
 
   5200     0.355E-14     0.0000007823       28.7358871606    1054.12  <-- CONV
        O_D=      0.4123704 O_OD=      0.0263872 O_TOT=     28.7358872 <-- SPRD
 Delta: O_D=  0.1110223E-14 O_OD=  0.4163336E-16 O_TOT=  0.3552714E-14 <-- DLTA
 ------------------------------------------------------------------------------

 Writing checkpoint file wannier90.chk... done

 Cycle:   5300
  WF centre and spread    1  ( -2.193931,  3.800000, 10.134272 )    14.36794358
  WF centre and spread    2  ( -2.193931,  3.800000,  3.770728 )    14.36794358
  Sum of centres and spreads ( -4.387862,  7.600000, 13.905000 )    28.73588716
 
   5300    -0.355E-14     0.0000007434       28.7358871606    1055.01  <-- CONV
        O_D=      0.4123704 O_OD=      0.0263872 O_TOT=     28.7358872 <-- SPRD
 Delta: O_D= -0.3219647E-14 O_OD= -0.6938894E-17 O_TOT= -0.3552714E-14 <-- DLTA
 ------------------------------------------------------------------------------

 Writing checkpoint file wannier90.chk... done

 Cycle:   5400
  WF centre and spread    1  ( -2.193931,  3.800000, 10.134272 )    14.36794358
  WF centre and spread    2  ( -2.193931,  3.800000,  3.770728 )    14.36794358
  Sum of centres and spreads ( -4.387862,  7.600000, 13.905000 )    28.73588716
 
   5400     0.000E+00     0.0000007073       28.7358871606    1055.91  <-- CONV
        O_D=      0.4123704 O_OD=      0.0263872 O_TOT=     28.7358872 <-- SPRD
 Delta: O_D= -0.1276756E-14 O_OD= -0.3226586E-15 O_TOT=  0.0000000E+00 <-- DLTA
 ------------------------------------------------------------------------------

 Writing checkpoint file wannier90.chk... done

 Cycle:   5500
  WF centre and spread    1  ( -2.193931,  3.800000, 10.134272 )    14.36794358
  WF centre and spread    2  ( -2.193931,  3.800000,  3.770728 )    14.36794358
  Sum of centres and spreads ( -4.387862,  7.600000, 13.905000 )    28.73588716
 
   5500    -0.355E-14     0.0000006743       28.7358871606    1056.83  <-- CONV
        O_D=      0.4123704 O_OD=      0.0263872 O_TOT=     28.7358872 <-- SPRD
 Delta: O_D= -0.3330669E-14 O_OD= -0.3157197E-15 O_TOT= -0.3552714E-14 <-- DLTA
 ------------------------------------------------------------------------------

 Writing checkpoint file wannier90.chk... done

 Cycle:   5600
  WF centre and spread    1  ( -2.193931,  3.800000, 10.134272 )    14.36794358
  WF centre and spread    2  ( -2.193931,  3.800000,  3.770728 )    14.36794358
  Sum of centres and spreads ( -4.387862,  7.600000, 13.905000 )    28.73588716
 
   5600     0.000E+00     0.0000006412       28.7358871606    1057.73  <-- CONV
        O_D=      0.4123704 O_OD=      0.0263872 O_TOT=     28.7358872 <-- SPRD
 Delta: O_D=  0.1998401E-14 O_OD= -0.1630640E-15 O_TOT=  0.0000000E+00 <-- DLTA
 ------------------------------------------------------------------------------

 Writing checkpoint file wannier90.chk... done

 Cycle:   5700
  WF centre and spread    1  ( -2.193931,  3.800000, 10.134272 )    14.36794358
  WF centre and spread    2  ( -2.193931,  3.800000,  3.770728 )    14.36794358
  Sum of centres and spreads ( -4.387862,  7.600000, 13.905000 )    28.73588716
 
   5700     0.355E-14     0.0000006124       28.7358871606    1058.68  <-- CONV
        O_D=      0.4123704 O_OD=      0.0263872 O_TOT=     28.7358872 <-- SPRD
 Delta: O_D= -0.2220446E-14 O_OD=  0.4093947E-15 O_TOT=  0.3552714E-14 <-- DLTA
 ------------------------------------------------------------------------------

 Writing checkpoint file wannier90.chk... done

 Cycle:   5800
  WF centre and spread    1  ( -2.193931,  3.800000, 10.134272 )    14.36794358
  WF centre and spread    2  ( -2.193931,  3.800000,  3.770728 )    14.36794358
  Sum of centres and spreads ( -4.387862,  7.600000, 13.905000 )    28.73588716
 
   5800     0.355E-14     0.0000005844       28.7358871606    1059.60  <-- CONV
        O_D=      0.4123704 O_OD=      0.0263872 O_TOT=     28.7358872 <-- SPRD
 Delta: O_D=  0.2109424E-14 O_OD=  0.1561251E-15 O_TOT=  0.3552714E-14 <-- DLTA
 ------------------------------------------------------------------------------

 Writing checkpoint file wannier90.chk... done

 Cycle:   5900
  WF centre and spread    1  ( -2.193931,  3.800000, 10.134272 )    14.36794358
  WF centre and spread    2  ( -2.193931,  3.800000,  3.770728 )    14.36794358
  Sum of centres and spreads ( -4.387862,  7.600000, 13.905000 )    28.73588716
 
   5900    -0.711E-14     0.0000005559       28.7358871606    1060.51  <-- CONV
        O_D=      0.4123704 O_OD=      0.0263872 O_TOT=     28.7358872 <-- SPRD
 Delta: O_D= -0.6827872E-14 O_OD=  0.2567391E-15 O_TOT= -0.7105427E-14 <-- DLTA
 ------------------------------------------------------------------------------

 Writing checkpoint file wannier90.chk... done

 Cycle:   6000
  WF centre and spread    1  ( -2.193931,  3.800000, 10.134272 )    14.36794358
  WF centre and spread    2  ( -2.193931,  3.800000,  3.770728 )    14.36794358
  Sum of centres and spreads ( -4.387862,  7.600000, 13.905000 )    28.73588716
 
   6000    -0.355E-14     0.0000005303       28.7358871606    1061.44  <-- CONV
        O_D=      0.4123704 O_OD=      0.0263872 O_TOT=     28.7358872 <-- SPRD
 Delta: O_D= -0.6106227E-15 O_OD= -0.2983724E-15 O_TOT= -0.3552714E-14 <-- DLTA
 ------------------------------------------------------------------------------

 Writing checkpoint file wannier90.chk... done

 Cycle:   6100
  WF centre and spread    1  ( -2.193931,  3.800000, 10.134272 )    14.36794358
  WF centre and spread    2  ( -2.193931,  3.800000,  3.770728 )    14.36794358
  Sum of centres and spreads ( -4.387862,  7.600000, 13.905000 )    28.73588716
 
   6100     0.000E+00     0.0000005053       28.7358871606    1062.35  <-- CONV
        O_D=      0.4123704 O_OD=      0.0263872 O_TOT=     28.7358872 <-- SPRD
 Delta: O_D=  0.3330669E-15 O_OD= -0.1769418E-15 O_TOT=  0.0000000E+00 <-- DLTA
 ------------------------------------------------------------------------------

 Writing checkpoint file wannier90.chk... done

 Cycle:   6200
  WF centre and spread    1  ( -2.193931,  3.800000, 10.134272 )    14.36794358
  WF centre and spread    2  ( -2.193931,  3.800000,  3.770728 )    14.36794358
  Sum of centres and spreads ( -4.387862,  7.600000, 13.905000 )    28.73588716
 
   6200     0.355E-14     0.0000004811       28.7358871606    1063.26  <-- CONV
        O_D=      0.4123704 O_OD=      0.0263872 O_TOT=     28.7358872 <-- SPRD
 Delta: O_D=  0.1498801E-14 O_OD=  0.9020562E-16 O_TOT=  0.3552714E-14 <-- DLTA
 ------------------------------------------------------------------------------

 Writing checkpoint file wannier90.chk... done

 Cycle:   6300
  WF centre and spread    1  ( -2.193931,  3.800000, 10.134272 )    14.36794358
  WF centre and spread    2  ( -2.193931,  3.800000,  3.770728 )    14.36794358
  Sum of centres and spreads ( -4.387862,  7.600000, 13.905000 )    28.73588716
 
   6300    -0.355E-14     0.0000004581       28.7358871606    1064.17  <-- CONV
        O_D=      0.4123704 O_OD=      0.0263872 O_TOT=     28.7358872 <-- SPRD
 Delta: O_D= -0.1998401E-14 O_OD= -0.4510281E-16 O_TOT= -0.3552714E-14 <-- DLTA
 ------------------------------------------------------------------------------

 Writing checkpoint file wannier90.chk... done

 Cycle:   6400
  WF centre and spread    1  ( -2.193931,  3.800000, 10.134272 )    14.36794358
  WF centre and spread    2  ( -2.193931,  3.800000,  3.770728 )    14.36794358
  Sum of centres and spreads ( -4.387862,  7.600000, 13.905000 )    28.73588716
 
   6400     0.000E+00     0.0000004364       28.7358871606    1065.07  <-- CONV
        O_D=      0.4123704 O_OD=      0.0263872 O_TOT=     28.7358872 <-- SPRD
 Delta: O_D=  0.2275957E-14 O_OD=  0.8673617E-16 O_TOT=  0.0000000E+00 <-- DLTA
 ------------------------------------------------------------------------------

 Writing checkpoint file wannier90.chk... done

 Cycle:   6500
  WF centre and spread    1  ( -2.193931,  3.800000, 10.134272 )    14.36794358
  WF centre and spread    2  ( -2.193931,  3.800000,  3.770728 )    14.36794358
  Sum of centres and spreads ( -4.387862,  7.600000, 13.905000 )    28.73588716
 
   6500    -0.355E-14     0.0000004155       28.7358871606    1066.00  <-- CONV
        O_D=      0.4123704 O_OD=      0.0263872 O_TOT=     28.7358872 <-- SPRD
 Delta: O_D= -0.2386980E-14 O_OD=  0.1387779E-15 O_TOT= -0.3552714E-14 <-- DLTA
 ------------------------------------------------------------------------------

 Writing checkpoint file wannier90.chk... done

 Cycle:   6600
  WF centre and spread    1  ( -2.193931,  3.800000, 10.134272 )    14.36794358
  WF centre and spread    2  ( -2.193931,  3.800000,  3.770728 )    14.36794358
  Sum of centres and spreads ( -4.387862,  7.600000, 13.905000 )    28.73588716
 
   6600    -0.711E-14     0.0000003970       28.7358871606    1066.94  <-- CONV
        O_D=      0.4123704 O_OD=      0.0263872 O_TOT=     28.7358872 <-- SPRD
 Delta: O_D= -0.6439294E-14 O_OD= -0.3087808E-15 O_TOT= -0.7105427E-14 <-- DLTA
 ------------------------------------------------------------------------------

 Writing checkpoint file wannier90.chk... done

 Cycle:   6700
  WF centre and spread    1  ( -2.193931,  3.800000, 10.134272 )    14.36794358
  WF centre and spread    2  ( -2.193931,  3.800000,  3.770728 )    14.36794358
  Sum of centres and spreads ( -4.387862,  7.600000, 13.905000 )    28.73588716
 
   6700     0.000E+00     0.0000003781       28.7358871606    1067.84  <-- CONV
        O_D=      0.4123704 O_OD=      0.0263872 O_TOT=     28.7358872 <-- SPRD
 Delta: O_D= -0.5551115E-16 O_OD= -0.2428613E-16 O_TOT=  0.0000000E+00 <-- DLTA
 ------------------------------------------------------------------------------

 Writing checkpoint file wannier90.chk... done

 Cycle:   6800
  WF centre and spread    1  ( -2.193931,  3.800000, 10.134272 )    14.36794358
  WF centre and spread    2  ( -2.193931,  3.800000,  3.770728 )    14.36794358
  Sum of centres and spreads ( -4.387862,  7.600000, 13.905000 )    28.73588716
 
   6800    -0.355E-14     0.0000003608       28.7358871606    1068.78  <-- CONV
        O_D=      0.4123704 O_OD=      0.0263872 O_TOT=     28.7358872 <-- SPRD
 Delta: O_D= -0.2498002E-14 O_OD= -0.7285839E-16 O_TOT= -0.3552714E-14 <-- DLTA
 ------------------------------------------------------------------------------

 Writing checkpoint file wannier90.chk... done

 Cycle:   6900
  WF centre and spread    1  ( -2.193931,  3.800000, 10.134272 )    14.36794358
  WF centre and spread    2  ( -2.193931,  3.800000,  3.770728 )    14.36794358
  Sum of centres and spreads ( -4.387862,  7.600000, 13.905000 )    28.73588716
 
   6900    -0.355E-14     0.0000003440       28.7358871606    1069.71  <-- CONV
        O_D=      0.4123704 O_OD=      0.0263872 O_TOT=     28.7358872 <-- SPRD
 Delta: O_D= -0.2498002E-14 O_OD=  0.1353084E-15 O_TOT= -0.3552714E-14 <-- DLTA
 ------------------------------------------------------------------------------

 Writing checkpoint file wannier90.chk... done

 Cycle:   7000
  WF centre and spread    1  ( -2.193931,  3.800000, 10.134272 )    14.36794358
  WF centre and spread    2  ( -2.193931,  3.800000,  3.770728 )    14.36794358
  Sum of centres and spreads ( -4.387862,  7.600000, 13.905000 )    28.73588716
 
   7000     0.355E-14     0.0000003272       28.7358871606    1070.61  <-- CONV
        O_D=      0.4123704 O_OD=      0.0263872 O_TOT=     28.7358872 <-- SPRD
 Delta: O_D=  0.2997602E-14 O_OD=  0.2775558E-16 O_TOT=  0.3552714E-14 <-- DLTA
 ------------------------------------------------------------------------------

 Writing checkpoint file wannier90.chk... done

 Cycle:   7100
  WF centre and spread    1  ( -2.193931,  3.800000, 10.134272 )    14.36794358
  WF centre and spread    2  ( -2.193931,  3.800000,  3.770728 )    14.36794358
  Sum of centres and spreads ( -4.387862,  7.600000, 13.905000 )    28.73588716
 
   7100     0.000E+00     0.0000003121       28.7358871606    1071.54  <-- CONV
        O_D=      0.4123704 O_OD=      0.0263872 O_TOT=     28.7358872 <-- SPRD
 Delta: O_D=  0.1665335E-15 O_OD= -0.1769418E-15 O_TOT=  0.0000000E+00 <-- DLTA
 ------------------------------------------------------------------------------

 Writing checkpoint file wannier90.chk... done

 Cycle:   7200
  WF centre and spread    1  ( -2.193931,  3.800000, 10.134272 )    14.36794358
  WF centre and spread    2  ( -2.193931,  3.800000,  3.770728 )    14.36794358
  Sum of centres and spreads ( -4.387862,  7.600000, 13.905000 )    28.73588716
 
   7200     0.000E+00     0.0000002978       28.7358871606    1072.47  <-- CONV
        O_D=      0.4123704 O_OD=      0.0263872 O_TOT=     28.7358872 <-- SPRD
 Delta: O_D= -0.1665335E-14 O_OD= -0.2428613E-15 O_TOT=  0.0000000E+00 <-- DLTA
 ------------------------------------------------------------------------------

 Writing checkpoint file wannier90.chk... done

 Cycle:   7300
  WF centre and spread    1  ( -2.193931,  3.800000, 10.134272 )    14.36794358
  WF centre and spread    2  ( -2.193931,  3.800000,  3.770728 )    14.36794358
  Sum of centres and spreads ( -4.387862,  7.600000, 13.905000 )    28.73588716
 
   7300     0.000E+00     0.0000002840       28.7358871606    1073.39  <-- CONV
        O_D=      0.4123704 O_OD=      0.0263872 O_TOT=     28.7358872 <-- SPRD
 Delta: O_D= -0.1110223E-14 O_OD= -0.3122502E-16 O_TOT=  0.0000000E+00 <-- DLTA
 ------------------------------------------------------------------------------

 Writing checkpoint file wannier90.chk... done

 Cycle:   7400
  WF centre and spread    1  ( -2.193931,  3.800000, 10.134272 )    14.36794358
  WF centre and spread    2  ( -2.193931,  3.800000,  3.770728 )    14.36794358
  Sum of centres and spreads ( -4.387862,  7.600000, 13.905000 )    28.73588716
 
   7400    -0.355E-14     0.0000002705       28.7358871606    1074.31  <-- CONV
        O_D=      0.4123704 O_OD=      0.0263872 O_TOT=     28.7358872 <-- SPRD
 Delta: O_D= -0.3663736E-14 O_OD= -0.2428613E-16 O_TOT= -0.3552714E-14 <-- DLTA
[...]
  WF centre and spread    2  ( -2.193931,  3.800000,  3.770728 )    14.36794358
  Sum of centres and spreads ( -4.387862,  7.600000, 13.905000 )    28.73588716
 
  97200     0.000E+00     0.0000000000       28.7358871606    1989.40  <-- CONV
        O_D=      0.4123704 O_OD=      0.0263872 O_TOT=     28.7358872 <-- SPRD
 Delta: O_D=  0.5551115E-16 O_OD=  0.1040834E-16 O_TOT=  0.0000000E+00 <-- DLTA
 ------------------------------------------------------------------------------

 Writing checkpoint file wannier90.chk... done

 Cycle:  97300
  WF centre and spread    1  ( -2.193931,  3.800000, 10.134272 )    14.36794358
  WF centre and spread    2  ( -2.193931,  3.800000,  3.770728 )    14.36794358
  Sum of centres and spreads ( -4.387862,  7.600000, 13.905000 )    28.73588716
 
  97300     0.000E+00     0.0000000000       28.7358871606    1990.28  <-- CONV
        O_D=      0.4123704 O_OD=      0.0263872 O_TOT=     28.7358872 <-- SPRD
 Delta: O_D= -0.1665335E-15 O_OD=  0.1734723E-16 O_TOT=  0.0000000E+00 <-- DLTA
 ------------------------------------------------------------------------------

 Writing checkpoint file wannier90.chk... done

 Cycle:  97400
  WF centre and spread    1  ( -2.193931,  3.800000, 10.134272 )    14.36794358
  WF centre and spread    2  ( -2.193931,  3.800000,  3.770728 )    14.36794358
  Sum of centres and spreads ( -4.387862,  7.600000, 13.905000 )    28.73588716
 
  97400     0.000E+00     0.0000000000       28.7358871606    1991.17  <-- CONV
        O_D=      0.4123704 O_OD=      0.0263872 O_TOT=     28.7358872 <-- SPRD
 Delta: O_D= -0.6106227E-15 O_OD=  0.3122502E-16 O_TOT=  0.0000000E+00 <-- DLTA
 ------------------------------------------------------------------------------

 Writing checkpoint file wannier90.chk... done

 Cycle:  97500
  WF centre and spread    1  ( -2.193931,  3.800000, 10.134272 )    14.36794358
  WF centre and spread    2  ( -2.193931,  3.800000,  3.770728 )    14.36794358
  Sum of centres and spreads ( -4.387862,  7.600000, 13.905000 )    28.73588716
 
  97500     0.000E+00     0.0000000000       28.7358871606    1992.05  <-- CONV
        O_D=      0.4123704 O_OD=      0.0263872 O_TOT=     28.7358872 <-- SPRD
 Delta: O_D=  0.1665335E-15 O_OD=  0.3469447E-17 O_TOT=  0.0000000E+00 <-- DLTA
 ------------------------------------------------------------------------------

 Writing checkpoint file wannier90.chk... done

 Cycle:  97600
  WF centre and spread    1  ( -2.193931,  3.800000, 10.134272 )    14.36794358
  WF centre and spread    2  ( -2.193931,  3.800000,  3.770728 )    14.36794358
  Sum of centres and spreads ( -4.387862,  7.600000, 13.905000 )    28.73588716
 
  97600     0.000E+00     0.0000000000       28.7358871606    1992.94  <-- CONV
        O_D=      0.4123704 O_OD=      0.0263872 O_TOT=     28.7358872 <-- SPRD
 Delta: O_D=  0.1110223E-15 O_OD= -0.1040834E-16 O_TOT=  0.0000000E+00 <-- DLTA
 ------------------------------------------------------------------------------

 Writing checkpoint file wannier90.chk... done

 Cycle:  97700
  WF centre and spread    1  ( -2.193931,  3.800000, 10.134272 )    14.36794358
  WF centre and spread    2  ( -2.193931,  3.800000,  3.770728 )    14.36794358
  Sum of centres and spreads ( -4.387862,  7.600000, 13.905000 )    28.73588716
 
  97700     0.000E+00     0.0000000000       28.7358871606    1993.82  <-- CONV
        O_D=      0.4123704 O_OD=      0.0263872 O_TOT=     28.7358872 <-- SPRD
 Delta: O_D=  0.5551115E-16 O_OD=  0.0000000E+00 O_TOT=  0.0000000E+00 <-- DLTA
 ------------------------------------------------------------------------------

 Writing checkpoint file wannier90.chk... done

 Cycle:  97800
  WF centre and spread    1  ( -2.193931,  3.800000, 10.134272 )    14.36794358
  WF centre and spread    2  ( -2.193931,  3.800000,  3.770728 )    14.36794358
  Sum of centres and spreads ( -4.387862,  7.600000, 13.905000 )    28.73588716
 
  97800     0.000E+00     0.0000000000       28.7358871606    1994.71  <-- CONV
        O_D=      0.4123704 O_OD=      0.0263872 O_TOT=     28.7358872 <-- SPRD
 Delta: O_D= -0.1665335E-15 O_OD= -0.1040834E-16 O_TOT=  0.0000000E+00 <-- DLTA
 ------------------------------------------------------------------------------

 Writing checkpoint file wannier90.chk... done

 Cycle:  97900
  WF centre and spread    1  ( -2.193931,  3.800000, 10.134272 )    14.36794358
  WF centre and spread    2  ( -2.193931,  3.800000,  3.770728 )    14.36794358
  Sum of centres and spreads ( -4.387862,  7.600000, 13.905000 )    28.73588716
 
  97900     0.000E+00     0.0000000000       28.7358871606    1995.59  <-- CONV
        O_D=      0.4123704 O_OD=      0.0263872 O_TOT=     28.7358872 <-- SPRD
 Delta: O_D= -0.1110223E-15 O_OD= -0.1734723E-16 O_TOT=  0.0000000E+00 <-- DLTA
 ------------------------------------------------------------------------------

 Writing checkpoint file wannier90.chk... done

 Cycle:  98000
  WF centre and spread    1  ( -2.193931,  3.800000, 10.134272 )    14.36794358
  WF centre and spread    2  ( -2.193931,  3.800000,  3.770728 )    14.36794358
  Sum of centres and spreads ( -4.387862,  7.600000, 13.905000 )    28.73588716
 
  98000     0.000E+00     0.0000000000       28.7358871606    1996.48  <-- CONV
        O_D=      0.4123704 O_OD=      0.0263872 O_TOT=     28.7358872 <-- SPRD
 Delta: O_D=  0.0000000E+00 O_OD=  0.1734723E-16 O_TOT=  0.0000000E+00 <-- DLTA
 ------------------------------------------------------------------------------

 Writing checkpoint file wannier90.chk... done

 Cycle:  98100
  WF centre and spread    1  ( -2.193931,  3.800000, 10.134272 )    14.36794358
  WF centre and spread    2  ( -2.193931,  3.800000,  3.770728 )    14.36794358
  Sum of centres and spreads ( -4.387862,  7.600000, 13.905000 )    28.73588716
 
  98100     0.000E+00     0.0000000000       28.7358871606    1997.36  <-- CONV
        O_D=      0.4123704 O_OD=      0.0263872 O_TOT=     28.7358872 <-- SPRD
 Delta: O_D= -0.2775558E-15 O_OD= -0.2775558E-16 O_TOT=  0.0000000E+00 <-- DLTA
 ------------------------------------------------------------------------------

 Writing checkpoint file wannier90.chk... done

 Cycle:  98200
  WF centre and spread    1  ( -2.193931,  3.800000, 10.134272 )    14.36794358
  WF centre and spread    2  ( -2.193931,  3.800000,  3.770728 )    14.36794358
  Sum of centres and spreads ( -4.387862,  7.600000, 13.905000 )    28.73588716
 
  98200     0.000E+00     0.0000000000       28.7358871606    1998.26  <-- CONV
        O_D=      0.4123704 O_OD=      0.0263872 O_TOT=     28.7358872 <-- SPRD
 Delta: O_D=  0.0000000E+00 O_OD= -0.6938894E-17 O_TOT=  0.0000000E+00 <-- DLTA
 ------------------------------------------------------------------------------

 Writing checkpoint file wannier90.chk... done

 Cycle:  98300
  WF centre and spread    1  ( -2.193931,  3.800000, 10.134272 )    14.36794358
  WF centre and spread    2  ( -2.193931,  3.800000,  3.770728 )    14.36794358
  Sum of centres and spreads ( -4.387862,  7.600000, 13.905000 )    28.73588716
 
  98300     0.000E+00     0.0000000000       28.7358871606    1999.14  <-- CONV
        O_D=      0.4123704 O_OD=      0.0263872 O_TOT=     28.7358872 <-- SPRD
 Delta: O_D=  0.2775558E-15 O_OD=  0.3469447E-17 O_TOT=  0.0000000E+00 <-- DLTA
 ------------------------------------------------------------------------------

 Writing checkpoint file wannier90.chk... done

 Cycle:  98400
  WF centre and spread    1  ( -2.193931,  3.800000, 10.134272 )    14.36794358
  WF centre and spread    2  ( -2.193931,  3.800000,  3.770728 )    14.36794358
  Sum of centres and spreads ( -4.387862,  7.600000, 13.905000 )    28.73588716
 
  98400     0.000E+00     0.0000000000       28.7358871606    2000.02  <-- CONV
        O_D=      0.4123704 O_OD=      0.0263872 O_TOT=     28.7358872 <-- SPRD
 Delta: O_D=  0.5551115E-16 O_OD=  0.1040834E-16 O_TOT=  0.0000000E+00 <-- DLTA
 ------------------------------------------------------------------------------

 Writing checkpoint file wannier90.chk... done

 Cycle:  98500
  WF centre and spread    1  ( -2.193931,  3.800000, 10.134272 )    14.36794358
  WF centre and spread    2  ( -2.193931,  3.800000,  3.770728 )    14.36794358
  Sum of centres and spreads ( -4.387862,  7.600000, 13.905000 )    28.73588716
 
  98500     0.000E+00     0.0000000000       28.7358871606    2000.91  <-- CONV
        O_D=      0.4123704 O_OD=      0.0263872 O_TOT=     28.7358872 <-- SPRD
 Delta: O_D=  0.2220446E-15 O_OD=  0.3469447E-17 O_TOT=  0.0000000E+00 <-- DLTA
 ------------------------------------------------------------------------------

 Writing checkpoint file wannier90.chk... done

 Cycle:  98600
  WF centre and spread    1  ( -2.193931,  3.800000, 10.134272 )    14.36794358
  WF centre and spread    2  ( -2.193931,  3.800000,  3.770728 )    14.36794358
  Sum of centres and spreads ( -4.387862,  7.600000, 13.905000 )    28.73588716
 
  98600     0.000E+00     0.0000000000       28.7358871606    2001.80  <-- CONV
        O_D=      0.4123704 O_OD=      0.0263872 O_TOT=     28.7358872 <-- SPRD
 Delta: O_D= -0.1110223E-15 O_OD=  0.0000000E+00 O_TOT=  0.0000000E+00 <-- DLTA
 ------------------------------------------------------------------------------

 Writing checkpoint file wannier90.chk... done

 Cycle:  98700
  WF centre and spread    1  ( -2.193931,  3.800000, 10.134272 )    14.36794358
  WF centre and spread    2  ( -2.193931,  3.800000,  3.770728 )    14.36794358
  Sum of centres and spreads ( -4.387862,  7.600000, 13.905000 )    28.73588716
 
  98700     0.000E+00     0.0000000000       28.7358871606    2002.68  <-- CONV
        O_D=      0.4123704 O_OD=      0.0263872 O_TOT=     28.7358872 <-- SPRD
 Delta: O_D=  0.5551115E-16 O_OD= -0.6938894E-17 O_TOT=  0.0000000E+00 <-- DLTA
 ------------------------------------------------------------------------------

 Writing checkpoint file wannier90.chk... done

 Cycle:  98800
  WF centre and spread    1  ( -2.193931,  3.800000, 10.134272 )    14.36794358
  WF centre and spread    2  ( -2.193931,  3.800000,  3.770728 )    14.36794358
  Sum of centres and spreads ( -4.387862,  7.600000, 13.905000 )    28.73588716
 
  98800     0.000E+00     0.0000000000       28.7358871606    2003.57  <-- CONV
        O_D=      0.4123704 O_OD=      0.0263872 O_TOT=     28.7358872 <-- SPRD
 Delta: O_D= -0.3885781E-15 O_OD=  0.3469447E-17 O_TOT=  0.0000000E+00 <-- DLTA
 ------------------------------------------------------------------------------

 Writing checkpoint file wannier90.chk... done

 Cycle:  98900
  WF centre and spread    1  ( -2.193931,  3.800000, 10.134272 )    14.36794358
  WF centre and spread    2  ( -2.193931,  3.800000,  3.770728 )    14.36794358
  Sum of centres and spreads ( -4.387862,  7.600000, 13.905000 )    28.73588716
 
  98900    -0.355E-14     0.0000000000       28.7358871606    2004.45  <-- CONV
        O_D=      0.4123704 O_OD=      0.0263872 O_TOT=     28.7358872 <-- SPRD
 Delta: O_D= -0.3330669E-15 O_OD= -0.1734723E-16 O_TOT= -0.3552714E-14 <-- DLTA
 ------------------------------------------------------------------------------

 Writing checkpoint file wannier90.chk... done

 Cycle:  99000
  WF centre and spread    1  ( -2.193931,  3.800000, 10.134272 )    14.36794358
  WF centre and spread    2  ( -2.193931,  3.800000,  3.770728 )    14.36794358
  Sum of centres and spreads ( -4.387862,  7.600000, 13.905000 )    28.73588716
 
  99000     0.000E+00     0.0000000000       28.7358871606    2005.34  <-- CONV
        O_D=      0.4123704 O_OD=      0.0263872 O_TOT=     28.7358872 <-- SPRD
 Delta: O_D=  0.1110223E-15 O_OD=  0.6938894E-17 O_TOT=  0.0000000E+00 <-- DLTA
 ------------------------------------------------------------------------------

 Writing checkpoint file wannier90.chk... done

 Cycle:  99100
  WF centre and spread    1  ( -2.193931,  3.800000, 10.134272 )    14.36794358
  WF centre and spread    2  ( -2.193931,  3.800000,  3.770728 )    14.36794358
  Sum of centres and spreads ( -4.387862,  7.600000, 13.905000 )    28.73588716
 
  99100     0.000E+00     0.0000000000       28.7358871606    2006.23  <-- CONV
        O_D=      0.4123704 O_OD=      0.0263872 O_TOT=     28.7358872 <-- SPRD
 Delta: O_D=  0.1665335E-15 O_OD=  0.0000000E+00 O_TOT=  0.0000000E+00 <-- DLTA
 ------------------------------------------------------------------------------

 Writing checkpoint file wannier90.chk... done

 Cycle:  99200
  WF centre and spread    1  ( -2.193931,  3.800000, 10.134272 )    14.36794358
  WF centre and spread    2  ( -2.193931,  3.800000,  3.770728 )    14.36794358
  Sum of centres and spreads ( -4.387862,  7.600000, 13.905000 )    28.73588716
 
  99200     0.000E+00     0.0000000000       28.7358871606    2007.11  <-- CONV
        O_D=      0.4123704 O_OD=      0.0263872 O_TOT=     28.7358872 <-- SPRD
 Delta: O_D=  0.1665335E-15 O_OD= -0.2081668E-16 O_TOT=  0.0000000E+00 <-- DLTA
 ------------------------------------------------------------------------------

 Writing checkpoint file wannier90.chk... done

 Cycle:  99300
  WF centre and spread    1  ( -2.193931,  3.800000, 10.134272 )    14.36794358
  WF centre and spread    2  ( -2.193931,  3.800000,  3.770728 )    14.36794358
  Sum of centres and spreads ( -4.387862,  7.600000, 13.905000 )    28.73588716
 
  99300     0.000E+00     0.0000000000       28.7358871606    2007.99  <-- CONV
        O_D=      0.4123704 O_OD=      0.0263872 O_TOT=     28.7358872 <-- SPRD
 Delta: O_D=  0.3885781E-15 O_OD=  0.2428613E-16 O_TOT=  0.0000000E+00 <-- DLTA
 ------------------------------------------------------------------------------

 Writing checkpoint file wannier90.chk... done

 Cycle:  99400
  WF centre and spread    1  ( -2.193931,  3.800000, 10.134272 )    14.36794358
  WF centre and spread    2  ( -2.193931,  3.800000,  3.770728 )    14.36794358
  Sum of centres and spreads ( -4.387862,  7.600000, 13.905000 )    28.73588716
 
  99400     0.000E+00     0.0000000000       28.7358871606    2008.88  <-- CONV
        O_D=      0.4123704 O_OD=      0.0263872 O_TOT=     28.7358872 <-- SPRD
 Delta: O_D= -0.5551115E-16 O_OD= -0.6938894E-17 O_TOT=  0.0000000E+00 <-- DLTA
 ------------------------------------------------------------------------------

 Writing checkpoint file wannier90.chk... done

 Cycle:  99500
  WF centre and spread    1  ( -2.193931,  3.800000, 10.134272 )    14.36794358
  WF centre and spread    2  ( -2.193931,  3.800000,  3.770728 )    14.36794358
  Sum of centres and spreads ( -4.387862,  7.600000, 13.905000 )    28.73588716
 
  99500     0.000E+00     0.0000000000       28.7358871606    2009.76  <-- CONV
        O_D=      0.4123704 O_OD=      0.0263872 O_TOT=     28.7358872 <-- SPRD
 Delta: O_D= -0.2775558E-15 O_OD= -0.3122502E-16 O_TOT=  0.0000000E+00 <-- DLTA
 ------------------------------------------------------------------------------

 Writing checkpoint file wannier90.chk... done

 Cycle:  99600
  WF centre and spread    1  ( -2.193931,  3.800000, 10.134272 )    14.36794358
  WF centre and spread    2  ( -2.193931,  3.800000,  3.770728 )    14.36794358
  Sum of centres and spreads ( -4.387862,  7.600000, 13.905000 )    28.73588716
 
  99600     0.000E+00     0.0000000000       28.7358871606    2010.64  <-- CONV
        O_D=      0.4123704 O_OD=      0.0263872 O_TOT=     28.7358872 <-- SPRD
 Delta: O_D= -0.1665335E-15 O_OD=  0.3122502E-16 O_TOT=  0.0000000E+00 <-- DLTA
 ------------------------------------------------------------------------------

 Writing checkpoint file wannier90.chk... done

 Cycle:  99700
  WF centre and spread    1  ( -2.193931,  3.800000, 10.134272 )    14.36794358
  WF centre and spread    2  ( -2.193931,  3.800000,  3.770728 )    14.36794358
  Sum of centres and spreads ( -4.387862,  7.600000, 13.905000 )    28.73588716
 
  99700     0.000E+00     0.0000000000       28.7358871606    2011.53  <-- CONV
        O_D=      0.4123704 O_OD=      0.0263872 O_TOT=     28.7358872 <-- SPRD
 Delta: O_D=  0.6106227E-15 O_OD=  0.3469447E-17 O_TOT=  0.0000000E+00 <-- DLTA
 ------------------------------------------------------------------------------

 Writing checkpoint file wannier90.chk... done

 Cycle:  99800
  WF centre and spread    1  ( -2.193931,  3.800000, 10.134272 )    14.36794358
  WF centre and spread    2  ( -2.193931,  3.800000,  3.770728 )    14.36794358
  Sum of centres and spreads ( -4.387862,  7.600000, 13.905000 )    28.73588716
 
  99800     0.000E+00     0.0000000000       28.7358871606    2012.41  <-- CONV
        O_D=      0.4123704 O_OD=      0.0263872 O_TOT=     28.7358872 <-- SPRD
 Delta: O_D=  0.0000000E+00 O_OD=  0.3469447E-16 O_TOT=  0.0000000E+00 <-- DLTA
 ------------------------------------------------------------------------------

 Writing checkpoint file wannier90.chk... done

 Cycle:  99900
  WF centre and spread    1  ( -2.193931,  3.800000, 10.134272 )    14.36794358
  WF centre and spread    2  ( -2.193931,  3.800000,  3.770728 )    14.36794358
  Sum of centres and spreads ( -4.387862,  7.600000, 13.905000 )    28.73588716
 
  99900     0.000E+00     0.0000000000       28.7358871606    2013.29  <-- CONV
        O_D=      0.4123704 O_OD=      0.0263872 O_TOT=     28.7358872 <-- SPRD
 Delta: O_D=  0.1110223E-15 O_OD=  0.1734723E-16 O_TOT=  0.0000000E+00 <-- DLTA
 ------------------------------------------------------------------------------

 Writing checkpoint file wannier90.chk... done

 Cycle: 100000
  WF centre and spread    1  ( -2.193931,  3.800000, 10.134272 )    14.36794358
  WF centre and spread    2  ( -2.193931,  3.800000,  3.770728 )    14.36794358
  Sum of centres and spreads ( -4.387862,  7.600000, 13.905000 )    28.73588716
 
 100000     0.000E+00     0.0000000000       28.7358871606    2014.18  <-- CONV
        O_D=      0.4123704 O_OD=      0.0263872 O_TOT=     28.7358872 <-- SPRD
 Delta: O_D= -0.1110223E-15 O_OD= -0.1734723E-16 O_TOT=  0.0000000E+00 <-- DLTA
 ------------------------------------------------------------------------------

 Writing checkpoint file wannier90.chk... done

 Final State
  WF centre and spread    1  ( -2.193931,  3.800000, 10.134272 )    14.36794358
  WF centre and spread    2  ( -2.193931,  3.800000,  3.770728 )    14.36794358
  Sum of centres and spreads ( -4.387862,  7.600000, 13.905000 )    28.73588716
 
         Spreads (Ang^2)       Omega I      =    28.297129568
        ================       Omega D      =     0.412370424
                               Omega OD     =     0.026387169
    Final Spread (Ang^2)       Omega Total  =    28.735887161
 ------------------------------------------------------------------------------

 Writing checkpoint file wannier90.chk... done

 Time for wannierise         1007.796 (sec)
 *---------------------------------------------------------------------------*
 |                               PLOTTING                                    |
 *---------------------------------------------------------------------------*
 
 
 Calculating interpolated band-structure
 
 Time to calculate interpolated band structure       0.042 (sec)
 
 Time for plotting              0.166 (sec)
 Total Execution Time        1028.150 (sec)

 *===========================================================================*
 |                             TIMING INFORMATION                            |
 *===========================================================================*
 |    Tag                                                Ncalls      Time (s)|
 |---------------------------------------------------------------------------|
 |kmesh: get                                        :         2         1.252|
 |dis: main                                         :         1        15.399|
 |wann: main                                        :         1      1007.794|
 |plot: main                                        :         1         0.166|
 *---------------------------------------------------------------------------*
 
 All done: wannier90 exiting
