 
             +---------------------------------------------------+
             |                                                   |
             |                   WANNIER90                       |
             |                                                   |
             +---------------------------------------------------+
             |                                                   |
             |        Welcome to the Maximally-Localized         |
             |        Generalized Wannier Functions code         |
             |            http://www.wannier.org                 |
             |                                                   |
             |  Wannier90 Authors:                               |
             |    Arash A. Mostofi   (Imperial College London)   |
             |    Jonathan R. Yates  (University of Oxford)      |
             |    Young-Su Lee       (KIST, S. Korea)            |
             |                                                   |
             |  Wannier90 Contributors:                          |
             |    Matthew Shelley    (Imperial College London)   |
             |    Nicolas Poilvert   (MIT)                       |
             |                                                   |
             |  Wannier77 Authors:                               |
             |    Nicola Marzari     (University of Oxford)      |
             |    Ivo Souza          (UC Berkeley)               |
             |    David Vanderbilt   (Rutgers University)        |
             |                                                   |
             |  Please cite                                      |
             |                                                   |
             |  [ref] "Wannier90: A Tool for Obtaining Maximally |
             |         Localised Wannier Functions"              |
             |        A. A. Mostofi, J. R. Yates, Y.-S. Lee,     |
             |        I. Souza, D. Vanderbilt and N. Marzari     |
             |        Comput. Phys. Commun. 178, 685 (2008)      |
             |                                                   |
             |  in any publications arising from the use of      |
             |  this code. For the method please cite            |
             |                                                   |
             |  [ref] "Maximally Localized Generalised Wannier   |
             |         Functions for Composite Energy Bands"     |
             |         N. Marzari and D. Vanderbilt              |
             |         Phys. Rev. B 56 12847 (1997)              |
             |                                                   |
             |  [ref] "Maximally Localized Wannier Functions     |
             |         for Entangled Energy Bands"               |
             |         I. Souza, N. Marzari and D. Vanderbilt    |
             |         Phys. Rev. B 65 035109 (2001)             |
             |                                                   |
             |                                                   |
             | Copyright (c) 1996-2010                           |
             |        A. A. Mostofi, J. R. Yates, Y.-S. Lee,     |
             |        I. Souza, D. Vanderbilt and N. Marzari     |
             |                                                   |
             |        Release: 1.2        24th Jan 2010          |
             |                                                   |
             | This program is free software; you can            |
             | redistribute it and/or modify it under the terms  |
             | of the GNU General Public License as published by |
             | the Free Software Foundation; either version 2 of |
             | the License, or (at your option) any later version|
             |                                                   |
             | This program is distributed in the hope that it   |
             | will be useful, but WITHOUT ANY WARRANTY; without |
             | even the implied warranty of MERCHANTABILITY or   |
             | FITNESS FOR A PARTICULAR PURPOSE. See the GNU     |
             | General Public License for more details.          |
             |                                                   |
             | You should have received a copy of the GNU General|
             | Public License along with this program; if not,   |
             | write to the Free Software Foundation, Inc.,      |
             | 675 Mass Ave, Cambridge, MA 02139, USA.           |
             |                                                   |
             +---------------------------------------------------+
             |    Execution started on 13Jun2024 at 23:45:45     |
             +---------------------------------------------------+

 Wannier90 is running in LIBRARY MODE

 Setting up k-point neighbours...


 Ignoring <num_bands> in input file
 Exiting.......
 Error: Found keyword dis_conv_tol more than once in input file
 
             +---------------------------------------------------+
             |                                                   |
             |                   WANNIER90                       |
             |                                                   |
             +---------------------------------------------------+
             |                                                   |
             |        Welcome to the Maximally-Localized         |
             |        Generalized Wannier Functions code         |
             |            http://www.wannier.org                 |
             |                                                   |
             |  Wannier90 Authors:                               |
             |    Arash A. Mostofi   (Imperial College London)   |
             |    Jonathan R. Yates  (University of Oxford)      |
             |    Young-Su Lee       (KIST, S. Korea)            |
             |                                                   |
             |  Wannier90 Contributors:                          |
             |    Matthew Shelley    (Imperial College London)   |
             |    Nicolas Poilvert   (MIT)                       |
             |                                                   |
             |  Wannier77 Authors:                               |
             |    Nicola Marzari     (University of Oxford)      |
             |    Ivo Souza          (UC Berkeley)               |
             |    David Vanderbilt   (Rutgers University)        |
             |                                                   |
             |  Please cite                                      |
             |                                                   |
             |  [ref] "Wannier90: A Tool for Obtaining Maximally |
             |         Localised Wannier Functions"              |
             |        A. A. Mostofi, J. R. Yates, Y.-S. Lee,     |
             |        I. Souza, D. Vanderbilt and N. Marzari     |
             |        Comput. Phys. Commun. 178, 685 (2008)      |
             |                                                   |
             |  in any publications arising from the use of      |
             |  this code. For the method please cite            |
             |                                                   |
             |  [ref] "Maximally Localized Generalised Wannier   |
             |         Functions for Composite Energy Bands"     |
             |         N. Marzari and D. Vanderbilt              |
             |         Phys. Rev. B 56 12847 (1997)              |
             |                                                   |
             |  [ref] "Maximally Localized Wannier Functions     |
             |         for Entangled Energy Bands"               |
             |         I. Souza, N. Marzari and D. Vanderbilt    |
             |         Phys. Rev. B 65 035109 (2001)             |
             |                                                   |
             |                                                   |
             | Copyright (c) 1996-2010                           |
             |        A. A. Mostofi, J. R. Yates, Y.-S. Lee,     |
             |        I. Souza, D. Vanderbilt and N. Marzari     |
             |                                                   |
             |        Release: 1.2        24th Jan 2010          |
             |                                                   |
             | This program is free software; you can            |
             | redistribute it and/or modify it under the terms  |
             | of the GNU General Public License as published by |
             | the Free Software Foundation; either version 2 of |
             | the License, or (at your option) any later version|
             |                                                   |
             | This program is distributed in the hope that it   |
             | will be useful, but WITHOUT ANY WARRANTY; without |
             | even the implied warranty of MERCHANTABILITY or   |
             | FITNESS FOR A PARTICULAR PURPOSE. See the GNU     |
             | General Public License for more details.          |
             |                                                   |
             | You should have received a copy of the GNU General|
             | Public License along with this program; if not,   |
             | write to the Free Software Foundation, Inc.,      |
             | 675 Mass Ave, Cambridge, MA 02139, USA.           |
             |                                                   |
             +---------------------------------------------------+
             |    Execution started on 14Jun2024 at 01:42:18     |
             +---------------------------------------------------+

 Wannier90 is running in LIBRARY MODE

 Setting up k-point neighbours...


 Ignoring <num_bands> in input file
 
                                    ------
                                    SYSTEM
                                    ------
 
                              Lattice Vectors (Ang)
                    a_1     0.000000   4.769902  -4.769902
                    a_2    -4.769902   0.000000   4.769902
                    a_3     5.482573   5.482573  10.252475
 
                   Unit Cell Volume:     482.74259  (Ang^3)
 
                        Reciprocal-Space Vectors (Ang^-1)
                    b_1    -0.340375   0.976881  -0.340375
                    b_2    -0.976881   0.340375   0.340375
                    b_3     0.296131   0.296131   0.296131
  
 *----------------------------------------------------------------------------*
 |   Site       Fractional Coordinate          Cartesian Coordinate (Ang)     |
 +----------------------------------------------------------------------------+
 | Nb   1   0.36050   0.22100   0.00000   |   -1.05415   1.71955  -0.66540    |
 | Nb   2   0.77900   0.63950  -0.00000   |   -3.05035   3.71575  -0.66540    |
 | Nb   3   0.36050   0.63950   0.00000   |   -3.05035   1.71955   1.33080    |
 | Nb   4   0.80809   0.60754   0.50857   |   -0.10965   6.64277   4.25753    |
 | Nb   5   0.39246   0.19197   0.50857   |    1.87258   4.66025   4.25781    |
 | Nb   6   0.80803   0.19191   0.50857   |    1.87287   6.64248   2.27530    |
 | Cl   1   0.45079   0.54921   0.85237   |    2.05350   6.82341   9.20836    |
 | Cl   2   0.95879   0.04121   0.88747   |    4.66905   9.43895   4.72200    |
 | Cl   3   0.95879   0.53011   0.88747   |    2.33705   9.43895   7.05400    |
 | Cl   4   0.46989   0.04121   0.88747   |    4.66905   7.10695   7.05400    |
 | Cl   5   0.20534   0.79466   0.11601   |   -3.15443   1.61547   4.00042    |
 | Cl   6   0.20993   0.28907   0.13149   |   -0.65793   1.72225   1.72559    |
 | Cl   7   0.71093   0.28937   0.13149   |   -0.65936   4.11197  -0.66270    |
 | Cl   8   0.71063   0.79007   0.13149   |   -3.04765   4.11054   1.72702    |
 | Cl   9   0.45936   0.54114   0.37237   |   -0.53965   4.23263   4.20783    |
 | Cl  10   0.45886   0.04584   0.37237   |    1.82288   4.23025   1.84768    |
 | Cl  11   0.95416   0.54064   0.37237   |   -0.53727   6.59278   1.84529    |
 | Cl  12   0.96750   0.03250   0.40249   |    2.05162   6.82153  -0.33333    |
 | Cl  13   0.20636   0.29684   0.61567   |    1.95954   4.35976   6.74375    |
 | Cl  14   0.20616   0.79364   0.61567   |   -0.41014   4.35880   9.11439    |
 | Cl  15   0.70316   0.79384   0.61567   |   -0.41110   6.72945   6.74470    |
 | Cl  16   0.71877   0.28123   0.65632   |    2.25690   7.02680   4.64185    |
 *----------------------------------------------------------------------------*
  
                                ------------
                                K-POINT GRID
                                ------------
  
             Grid size = 11 x 11 x 11      Total points = 1331
  
  
 *---------------------------------- MAIN ------------------------------------*
 |  Number of Wannier Functions               :                 2             |
 |  Number of input Bloch states              :               256             |
 |  Output verbosity (1=low, 5=high)          :                 1             |
 |  Timing Level (1=low, 5=high)              :                 1             |
 |  Optimisation (0=memory, 3=speed)          :                 3             |
 |  Length Unit                               :               Ang             |
 |  Post-processing setup (write *.nnkp)      :                 F             |
 |  Using Gamma-only branch of algorithms     :                 F             |
 *----------------------------------------------------------------------------*
 *------------------------------- WANNIERISE ---------------------------------*
 |  Total number of iterations                :            100000             |
 |  Number of CG steps before reset           :                 5             |
 |  Trial step length for line search         :             2.000             |
 |  Convergence tolerence                     :         0.100E-14             |
 |  Convergence window                        :                -1             |
 |  Iterations between writing output         :             10000             |
 |  Iterations between backing up to disk     :               100             |
 |  Write r^2_nm to file                      :                 F             |
 |  Write xyz WF centres to file              :                 F             |
 |  Use guiding centre to control phases      :                 F             |
 *----------------------------------------------------------------------------*
 *-------------------------------- PLOTTING ----------------------------------*
 |  Plotting interpolated bandstructure       :                 T             |
 |   Number of K-path sections                :                 7             |
 |   Divisions along first K-path section     :               100             |
 |   Output format                            :           gnuplot             |
 |   Output mode                              :               s-k             |
 *----------------------------------------------------------------------------*
 |   K-space path sections:                                                   |
 |    From:  G    0.000  0.000  0.000     To:  M    0.513  0.000 -0.171       |
 |    From:  M    0.513  0.000 -0.171     To:  K    0.342  0.342  0.000       |
 |    From:  K    0.342  0.342  0.000     To:  G    0.000  0.000  0.000       |
 |    From:  G    0.000  0.000  0.000     To:  A    0.000  0.000  0.500       |
 |    From:  A    0.000  0.000  0.500     To:  L    0.475  0.000  0.342       |
 |    From:  L    0.475  0.000  0.342     To:  G    0.000  0.000  0.000       |
 |    From:  G    0.000  0.000  0.000     To:  H    0.316  0.316  0.500       |
 *----------------------------------------------------------------------------*
 |  Plotting Hamiltonian in WF basis          :                 T             |
 *----------------------------------------------------------------------------*
 Time to read parameters        0.002 (sec)

 *---------------------------------- K-MESH ----------------------------------*
 +----------------------------------------------------------------------------+
 |                    Distance to Nearest-Neighbour Shells                    |
 |                    ------------------------------------                    |
 |          Shell             Distance (Ang^-1)          Multiplicity         |
 |          -----             -----------------          ------------         |
 |             1                   0.046628                      2            |
 |             2                   0.093257                      2            |
 |             3                   0.099004                      6            |
 |             4                   0.102599                      6            |
 |             5                   0.115868                      6            |
 |             6                   0.124898                      6            |
 |             7                   0.139885                      2            |
 |             8                   0.146279                      6            |
 |             9                   0.158181                      6            |
 |            10                   0.169353                      6            |
 |            11                   0.175655                     12            |
 |            12                   0.183625                      6            |
 |            13                   0.186514                      2            |
 |            14                   0.193332                     12            |
 |            15                   0.196169                      6            |
 |            16                   0.196955                      6            |
 |            17                   0.198007                      6            |
 |            18                   0.205197                      6            |
 |            19                   0.210428                      6            |
 |            20                   0.219655                     12            |
 |            21                   0.223781                      6            |
 |            22                   0.224471                      6            |
 |            23                   0.231736                      6            |
 |            24                   0.233142                      2            |
 |            25                   0.238557                      6            |
 |            26                   0.249797                      6            |
 |            27                   0.251928                     12            |
 |            28                   0.259157                     12            |
 |            29                   0.259753                      6            |
 |            30                   0.260552                     12            |
 |            31                   0.266057                     12            |
 |            32                   0.267216                      6            |
 |            33                   0.270112                     12            |
 |            34                   0.279771                      2            |
 |            35                   0.280639                     12            |
 |            36                   0.281189                      6            |
 +----------------------------------------------------------------------------+
 | The b-vectors are chosen automatically                                     |
 | The following shells are used:   1,  3                                     |
 +----------------------------------------------------------------------------+
 |                        Shell   # Nearest-Neighbours                        |
 |                        -----   --------------------                        |
 |                          1               2                                 |
 |                          3               6                                 |
 +----------------------------------------------------------------------------+
 | Completeness relation is fully satisfied [Eq. (B1), PRB 56, 12847 (1997)]  |
 +----------------------------------------------------------------------------+
 |                  b_k Vectors (Ang^-1) and Weights (Ang^2)                  |
 |                  ----------------------------------------                  |
 |            No.         b_k(x)      b_k(y)      b_k(z)        w_b           |
 |            ---        --------------------------------     --------        |
 |             1         0.026921    0.026921    0.026921   218.345884        |
 |             2        -0.026921   -0.026921   -0.026921   218.345884        |
 |             3        -0.030943    0.088807   -0.030943    34.866996        |
 |             4         0.088807   -0.030943   -0.030943    34.866996        |
 |             5        -0.030943   -0.030943    0.088807    34.866996        |
 |             6         0.030943   -0.088807    0.030943    34.866996        |
 |             7        -0.088807    0.030943    0.030943    34.866996        |
 |             8         0.030943    0.030943   -0.088807    34.866996        |
 +----------------------------------------------------------------------------+
 |                           b_k Directions (Ang^-1)                          |
 |                           -----------------------                          |
 |            No.           x           y           z                         |
 |            ---        --------------------------------                     |
 |             1         0.026921    0.026921    0.026921                     |
 |             2        -0.030943    0.088807   -0.030943                     |
 |             3         0.088807   -0.030943   -0.030943                     |
 |             4        -0.030943   -0.030943    0.088807                     |
 +----------------------------------------------------------------------------+
  
 Time to write kmesh            0.639 (sec)

 Finished setting up k-point neighbours.

 Returning to pw2wannier90 at 01:42:19 

 Resuming Wannier90 at 02:34:02 


 Ignoring <num_bands> in input file
 Ignoring <mp_grid> in input file
 Ignoring <unit_cell_cart> in input file
 Ignoring <kpoints> in input file
 Ignoring <atoms_cart> in input file
 
                                    ------
                                    SYSTEM
                                    ------
 
                              Lattice Vectors (Ang)
                    a_1     0.000000   4.769902  -4.769902
                    a_2    -4.769902   0.000000   4.769902
                    a_3     5.482573   5.482573  10.252475
 
                   Unit Cell Volume:     482.74259  (Ang^3)
 
                        Reciprocal-Space Vectors (Ang^-1)
                    b_1    -0.340375   0.976881  -0.340375
                    b_2    -0.976881   0.340375   0.340375
                    b_3     0.296131   0.296131   0.296131
  
 *----------------------------------------------------------------------------*
 |   Site       Fractional Coordinate          Cartesian Coordinate (Ang)     |
 +----------------------------------------------------------------------------+
 | Nb   1   0.36050   0.22100   0.00000   |   -1.05415   1.71955  -0.66540    |
 | Nb   2   0.77900   0.63950  -0.00000   |   -3.05035   3.71575  -0.66540    |
 | Nb   3   0.36050   0.63950   0.00000   |   -3.05035   1.71955   1.33080    |
 | Nb   4   0.80809   0.60754   0.50857   |   -0.10965   6.64277   4.25753    |
 | Nb   5   0.39246   0.19197   0.50857   |    1.87258   4.66025   4.25781    |
 | Nb   6   0.80803   0.19191   0.50857   |    1.87287   6.64248   2.27530    |
 | Cl   1   0.45079   0.54921   0.85237   |    2.05350   6.82341   9.20836    |
 | Cl   2   0.95879   0.04121   0.88747   |    4.66905   9.43895   4.72200    |
 | Cl   3   0.95879   0.53011   0.88747   |    2.33705   9.43895   7.05400    |
 | Cl   4   0.46989   0.04121   0.88747   |    4.66905   7.10695   7.05400    |
 | Cl   5   0.20534   0.79466   0.11601   |   -3.15443   1.61547   4.00042    |
 | Cl   6   0.20993   0.28907   0.13149   |   -0.65793   1.72225   1.72559    |
 | Cl   7   0.71093   0.28937   0.13149   |   -0.65936   4.11197  -0.66270    |
 | Cl   8   0.71063   0.79007   0.13149   |   -3.04765   4.11054   1.72702    |
 | Cl   9   0.45936   0.54114   0.37237   |   -0.53965   4.23263   4.20783    |
 | Cl  10   0.45886   0.04584   0.37237   |    1.82288   4.23025   1.84768    |
 | Cl  11   0.95416   0.54064   0.37237   |   -0.53727   6.59278   1.84529    |
 | Cl  12   0.96750   0.03250   0.40249   |    2.05162   6.82153  -0.33333    |
 | Cl  13   0.20636   0.29684   0.61567   |    1.95954   4.35976   6.74375    |
 | Cl  14   0.20616   0.79364   0.61567   |   -0.41014   4.35880   9.11439    |
 | Cl  15   0.70316   0.79384   0.61567   |   -0.41110   6.72945   6.74470    |
 | Cl  16   0.71877   0.28123   0.65632   |    2.25690   7.02680   4.64185    |
 *----------------------------------------------------------------------------*
  
                                ------------
                                K-POINT GRID
                                ------------
  
             Grid size = 11 x 11 x 11      Total points = 1331
  
  
 *---------------------------------- MAIN ------------------------------------*
 |  Number of Wannier Functions               :                 2             |
 |  Number of input Bloch states              :               256             |
 |  Output verbosity (1=low, 5=high)          :                 1             |
 |  Timing Level (1=low, 5=high)              :                 1             |
 |  Optimisation (0=memory, 3=speed)          :                 3             |
 |  Length Unit                               :               Ang             |
 |  Post-processing setup (write *.nnkp)      :                 F             |
 |  Using Gamma-only branch of algorithms     :                 F             |
 *----------------------------------------------------------------------------*
 *------------------------------- WANNIERISE ---------------------------------*
 |  Total number of iterations                :            100000             |
 |  Number of CG steps before reset           :                 5             |
 |  Trial step length for line search         :             2.000             |
 |  Convergence tolerence                     :         0.100E-14             |
 |  Convergence window                        :                -1             |
 |  Iterations between writing output         :             10000             |
 |  Iterations between backing up to disk     :               100             |
 |  Write r^2_nm to file                      :                 F             |
 |  Write xyz WF centres to file              :                 F             |
 |  Use guiding centre to control phases      :                 F             |
 *----------------------------------------------------------------------------*
 *------------------------------- DISENTANGLE --------------------------------*
 |  Using band disentanglement                :                 T             |
 |  Total number of iterations                :               200             |
 |  Mixing ratio                              :             0.500             |
 |  Convergence tolerence                     :         1.000E-15             |
 |  Convergence window                        :                 3             |
 *----------------------------------------------------------------------------*
 *-------------------------------- PLOTTING ----------------------------------*
 |  Plotting interpolated bandstructure       :                 T             |
 |   Number of K-path sections                :                 7             |
 |   Divisions along first K-path section     :               100             |
 |   Output format                            :           gnuplot             |
 |   Output mode                              :               s-k             |
 *----------------------------------------------------------------------------*
 |   K-space path sections:                                                   |
 |    From:  G    0.000  0.000  0.000     To:  M    0.513  0.000 -0.171       |
 |    From:  M    0.513  0.000 -0.171     To:  K    0.342  0.342  0.000       |
 |    From:  K    0.342  0.342  0.000     To:  G    0.000  0.000  0.000       |
 |    From:  G    0.000  0.000  0.000     To:  A    0.000  0.000  0.500       |
 |    From:  A    0.000  0.000  0.500     To:  L    0.475  0.000  0.342       |
 |    From:  L    0.475  0.000  0.342     To:  G    0.000  0.000  0.000       |
 |    From:  G    0.000  0.000  0.000     To:  H    0.316  0.316  0.500       |
 *----------------------------------------------------------------------------*
 |  Plotting Hamiltonian in WF basis          :                 T             |
 *----------------------------------------------------------------------------*
 Time to read parameters        0.020 (sec)

 *---------------------------------- K-MESH ----------------------------------*
 +----------------------------------------------------------------------------+
 |                    Distance to Nearest-Neighbour Shells                    |
 |                    ------------------------------------                    |
 |          Shell             Distance (Ang^-1)          Multiplicity         |
 |          -----             -----------------          ------------         |
 |             1                   0.046628                      2            |
 |             2                   0.093257                      2            |
 |             3                   0.099004                      6            |
 |             4                   0.102599                      6            |
 |             5                   0.115868                      6            |
 |             6                   0.124898                      6            |
 |             7                   0.139885                      2            |
 |             8                   0.146279                      6            |
 |             9                   0.158181                      6            |
 |            10                   0.169353                      6            |
 |            11                   0.175655                     12            |
 |            12                   0.183625                      6            |
 |            13                   0.186514                      2            |
 |            14                   0.193332                     12            |
 |            15                   0.196169                      6            |
 |            16                   0.196955                      6            |
 |            17                   0.198007                      6            |
 |            18                   0.205197                      6            |
 |            19                   0.210428                      6            |
 |            20                   0.219655                     12            |
 |            21                   0.223781                      6            |
 |            22                   0.224471                      6            |
 |            23                   0.231736                      6            |
 |            24                   0.233142                      2            |
 |            25                   0.238557                      6            |
 |            26                   0.249797                      6            |
 |            27                   0.251928                     12            |
 |            28                   0.259157                     12            |
 |            29                   0.259753                      6            |
 |            30                   0.260552                     12            |
 |            31                   0.266057                     12            |
 |            32                   0.267216                      6            |
 |            33                   0.270112                     12            |
 |            34                   0.279771                      2            |
 |            35                   0.280639                     12            |
 |            36                   0.281189                      6            |
 +----------------------------------------------------------------------------+
 | The b-vectors are chosen automatically                                     |
 | The following shells are used:   1,  3                                     |
 +----------------------------------------------------------------------------+
 |                        Shell   # Nearest-Neighbours                        |
 |                        -----   --------------------                        |
 |                          1               2                                 |
 |                          3               6                                 |
 +----------------------------------------------------------------------------+
 | Completeness relation is fully satisfied [Eq. (B1), PRB 56, 12847 (1997)]  |
 +----------------------------------------------------------------------------+
 |                  b_k Vectors (Ang^-1) and Weights (Ang^2)                  |
 |                  ----------------------------------------                  |
 |            No.         b_k(x)      b_k(y)      b_k(z)        w_b           |
 |            ---        --------------------------------     --------        |
 |             1         0.026921    0.026921    0.026921   218.345884        |
 |             2        -0.026921   -0.026921   -0.026921   218.345884        |
 |             3        -0.030943    0.088807   -0.030943    34.866996        |
 |             4         0.088807   -0.030943   -0.030943    34.866996        |
 |             5        -0.030943   -0.030943    0.088807    34.866996        |
 |             6         0.030943   -0.088807    0.030943    34.866996        |
 |             7        -0.088807    0.030943    0.030943    34.866996        |
 |             8         0.030943    0.030943   -0.088807    34.866996        |
 +----------------------------------------------------------------------------+
 |                           b_k Directions (Ang^-1)                          |
 |                           -----------------------                          |
 |            No.           x           y           z                         |
 |            ---        --------------------------------                     |
 |             1         0.026921    0.026921    0.026921                     |
 |             2        -0.030943    0.088807   -0.030943                     |
 |             3         0.088807   -0.030943   -0.030943                     |
 |             4        -0.030943   -0.030943    0.088807                     |
 +----------------------------------------------------------------------------+
  
 Time to get kmesh              0.637 (sec)

 *------------------------------- DISENTANGLE --------------------------------*
 +----------------------------------------------------------------------------+
 |                              Energy  Windows                               |
 |                              ---------------                               |
 |                   Outer:  -28.40701  to   26.75892  (eV)                   |
 |                   Inner:    3.60000  to    4.60000  (eV)                   |
 +----------------------------------------------------------------------------+
   Number of target bands to extract:    2

                   Unitarised projection of Wannier functions                  
                   ------------------------------------------                  
   A_mn = <psi_m|g_n> --> S = A.A^+ --> U = S^-1/2.A
   In dis_project... done
   Using an inner window (linner = T)
   In dis_proj_froz... done

                   Extraction of optimally-connected subspace                  
                   ------------------------------------------                  
 +---------------------------------------------------------------------+<-- DIS
 |  Iter     Omega_I(i-1)      Omega_I(i)      Delta (frac.)    Time   |<-- DIS
 +---------------------------------------------------------------------+<-- DIS
       1      14.96179484      14.96179484       1.998E-15   3094.10    <-- DIS
       2      14.96179484      14.96179484       1.998E-15   3097.68    <-- DIS
       3      14.96179484      14.96179484       1.998E-15   3101.26    <-- DIS
       4      14.96179484      14.96179484       1.998E-15   3104.84    <-- DIS
       5      14.96179484      14.96179484       1.998E-15   3108.42    <-- DIS
       6      14.96179484      14.96179484       1.998E-15   3112.01    <-- DIS
       7      14.96179484      14.96179484       1.998E-15   3115.59    <-- DIS
       8      14.96179484      14.96179484       1.998E-15   3119.17    <-- DIS
       9      14.96179484      14.96179484       1.998E-15   3122.75    <-- DIS
      10      14.96179484      14.96179484       1.998E-15   3126.33    <-- DIS
      11      14.96179484      14.96179484       1.998E-15   3129.91    <-- DIS
      12      14.96179484      14.96179484       1.998E-15   3133.50    <-- DIS
      13      14.96179484      14.96179484       1.998E-15   3137.08    <-- DIS
      14      14.96179484      14.96179484       1.998E-15   3140.66    <-- DIS
      15      14.96179484      14.96179484       1.998E-15   3144.24    <-- DIS
      16      14.96179484      14.96179484       1.998E-15   3147.82    <-- DIS
      17      14.96179484      14.96179484       1.998E-15   3151.40    <-- DIS
      18      14.96179484      14.96179484       1.998E-15   3154.98    <-- DIS
      19      14.96179484      14.96179484       1.998E-15   3158.56    <-- DIS
      20      14.96179484      14.96179484       1.998E-15   3162.14    <-- DIS
      21      14.96179484      14.96179484       1.998E-15   3165.73    <-- DIS
      22      14.96179484      14.96179484       1.998E-15   3169.31    <-- DIS
      23      14.96179484      14.96179484       1.998E-15   3172.89    <-- DIS
      24      14.96179484      14.96179484       1.998E-15   3176.47    <-- DIS
      25      14.96179484      14.96179484       1.998E-15   3180.05    <-- DIS
      26      14.96179484      14.96179484       1.998E-15   3183.63    <-- DIS
      27      14.96179484      14.96179484       1.998E-15   3187.22    <-- DIS
      28      14.96179484      14.96179484       1.998E-15   3190.80    <-- DIS
      29      14.96179484      14.96179484       1.998E-15   3194.38    <-- DIS
      30      14.96179484      14.96179484       1.998E-15   3197.96    <-- DIS
      31      14.96179484      14.96179484       1.998E-15   3201.54    <-- DIS
      32      14.96179484      14.96179484       1.998E-15   3205.12    <-- DIS
      33      14.96179484      14.96179484       1.998E-15   3208.70    <-- DIS
      34      14.96179484      14.96179484       1.998E-15   3212.29    <-- DIS
      35      14.96179484      14.96179484       1.998E-15   3215.87    <-- DIS
      36      14.96179484      14.96179484       1.998E-15   3219.45    <-- DIS
      37      14.96179484      14.96179484       1.998E-15   3223.03    <-- DIS
      38      14.96179484      14.96179484       1.998E-15   3226.61    <-- DIS
      39      14.96179484      14.96179484       1.998E-15   3230.19    <-- DIS
      40      14.96179484      14.96179484       1.998E-15   3233.78    <-- DIS
      41      14.96179484      14.96179484       1.998E-15   3237.36    <-- DIS
      42      14.96179484      14.96179484       1.998E-15   3240.94    <-- DIS
      43      14.96179484      14.96179484       1.998E-15   3244.52    <-- DIS
      44      14.96179484      14.96179484       1.998E-15   3248.10    <-- DIS
      45      14.96179484      14.96179484       1.998E-15   3251.68    <-- DIS
      46      14.96179484      14.96179484       1.998E-15   3255.27    <-- DIS
      47      14.96179484      14.96179484       1.998E-15   3258.85    <-- DIS
      48      14.96179484      14.96179484       1.998E-15   3262.43    <-- DIS
      49      14.96179484      14.96179484       1.998E-15   3266.01    <-- DIS
      50      14.96179484      14.96179484       1.998E-15   3269.59    <-- DIS
      51      14.96179484      14.96179484       1.998E-15   3273.17    <-- DIS
      52      14.96179484      14.96179484       1.998E-15   3276.76    <-- DIS
      53      14.96179484      14.96179484       1.998E-15   3280.34    <-- DIS
      54      14.96179484      14.96179484       1.998E-15   3283.92    <-- DIS
      55      14.96179484      14.96179484       1.998E-15   3287.50    <-- DIS
      56      14.96179484      14.96179484       1.998E-15   3291.08    <-- DIS
      57      14.96179484      14.96179484       1.998E-15   3294.66    <-- DIS
      58      14.96179484      14.96179484       1.998E-15   3298.25    <-- DIS
      59      14.96179484      14.96179484       1.998E-15   3301.83    <-- DIS
      60      14.96179484      14.96179484       1.998E-15   3305.41    <-- DIS
      61      14.96179484      14.96179484       1.998E-15   3308.99    <-- DIS
      62      14.96179484      14.96179484       1.998E-15   3312.57    <-- DIS
      63      14.96179484      14.96179484       1.998E-15   3316.15    <-- DIS
      64      14.96179484      14.96179484       1.998E-15   3319.74    <-- DIS
      65      14.96179484      14.96179484       1.998E-15   3323.32    <-- DIS
      66      14.96179484      14.96179484       1.998E-15   3326.90    <-- DIS
      67      14.96179484      14.96179484       1.998E-15   3330.48    <-- DIS
      68      14.96179484      14.96179484       1.998E-15   3334.06    <-- DIS
      69      14.96179484      14.96179484       1.998E-15   3337.64    <-- DIS
      70      14.96179484      14.96179484       1.998E-15   3341.22    <-- DIS
      71      14.96179484      14.96179484       1.998E-15   3344.81    <-- DIS
      72      14.96179484      14.96179484       1.998E-15   3348.39    <-- DIS
      73      14.96179484      14.96179484       1.998E-15   3351.97    <-- DIS
      74      14.96179484      14.96179484       1.998E-15   3355.55    <-- DIS
      75      14.96179484      14.96179484       1.998E-15   3359.13    <-- DIS
      76      14.96179484      14.96179484       1.998E-15   3362.71    <-- DIS
      77      14.96179484      14.96179484       1.998E-15   3366.30    <-- DIS
      78      14.96179484      14.96179484       1.998E-15   3369.88    <-- DIS
      79      14.96179484      14.96179484       1.998E-15   3373.46    <-- DIS
      80      14.96179484      14.96179484       1.998E-15   3377.04    <-- DIS
      81      14.96179484      14.96179484       1.998E-15   3380.62    <-- DIS
      82      14.96179484      14.96179484       1.998E-15   3384.21    <-- DIS
      83      14.96179484      14.96179484       1.998E-15   3387.79    <-- DIS
      84      14.96179484      14.96179484       1.998E-15   3391.37    <-- DIS
      85      14.96179484      14.96179484       1.998E-15   3394.95    <-- DIS
      86      14.96179484      14.96179484       1.998E-15   3398.53    <-- DIS
      87      14.96179484      14.96179484       1.998E-15   3402.11    <-- DIS
      88      14.96179484      14.96179484       1.998E-15   3405.70    <-- DIS
      89      14.96179484      14.96179484       1.998E-15   3409.28    <-- DIS
      90      14.96179484      14.96179484       1.998E-15   3412.86    <-- DIS
      91      14.96179484      14.96179484       1.998E-15   3416.44    <-- DIS
      92      14.96179484      14.96179484       1.998E-15   3420.02    <-- DIS
      93      14.96179484      14.96179484       1.998E-15   3423.60    <-- DIS
      94      14.96179484      14.96179484       1.998E-15   3427.19    <-- DIS
      95      14.96179484      14.96179484       1.998E-15   3430.77    <-- DIS
      96      14.96179484      14.96179484       1.998E-15   3434.35    <-- DIS
      97      14.96179484      14.96179484       1.998E-15   3437.93    <-- DIS
      98      14.96179484      14.96179484       1.998E-15   3441.51    <-- DIS
      99      14.96179484      14.96179484       1.998E-15   3445.09    <-- DIS
     100      14.96179484      14.96179484       1.998E-15   3448.67    <-- DIS
     101      14.96179484      14.96179484       1.998E-15   3452.26    <-- DIS
     102      14.96179484      14.96179484       1.998E-15   3455.84    <-- DIS
     103      14.96179484      14.96179484       1.998E-15   3459.42    <-- DIS
     104      14.96179484      14.96179484       1.998E-15   3463.00    <-- DIS
     105      14.96179484      14.96179484       1.998E-15   3466.58    <-- DIS
     106      14.96179484      14.96179484       1.998E-15   3470.16    <-- DIS
     107      14.96179484      14.96179484       1.998E-15   3473.74    <-- DIS
     108      14.96179484      14.96179484       1.998E-15   3477.33    <-- DIS
     109      14.96179484      14.96179484       1.998E-15   3480.91    <-- DIS
     110      14.96179484      14.96179484       1.998E-15   3484.49    <-- DIS
     111      14.96179484      14.96179484       1.998E-15   3488.07    <-- DIS
     112      14.96179484      14.96179484       1.998E-15   3491.65    <-- DIS
     113      14.96179484      14.96179484       1.998E-15   3495.23    <-- DIS
     114      14.96179484      14.96179484       1.998E-15   3498.81    <-- DIS
     115      14.96179484      14.96179484       1.998E-15   3502.40    <-- DIS
     116      14.96179484      14.96179484       1.998E-15   3505.98    <-- DIS
     117      14.96179484      14.96179484       1.998E-15   3509.56    <-- DIS
     118      14.96179484      14.96179484       1.998E-15   3513.15    <-- DIS
     119      14.96179484      14.96179484       1.998E-15   3516.73    <-- DIS
     120      14.96179484      14.96179484       1.998E-15   3520.32    <-- DIS
     121      14.96179484      14.96179484       1.998E-15   3523.91    <-- DIS
     122      14.96179484      14.96179484       1.998E-15   3527.49    <-- DIS
     123      14.96179484      14.96179484       1.998E-15   3531.07    <-- DIS
     124      14.96179484      14.96179484       1.998E-15   3534.65    <-- DIS
     125      14.96179484      14.96179484       1.998E-15   3538.23    <-- DIS
     126      14.96179484      14.96179484       1.998E-15   3541.81    <-- DIS
     127      14.96179484      14.96179484       1.998E-15   3545.40    <-- DIS
     128      14.96179484      14.96179484       1.998E-15   3548.98    <-- DIS
     129      14.96179484      14.96179484       1.998E-15   3552.56    <-- DIS
     130      14.96179484      14.96179484       1.998E-15   3556.14    <-- DIS
     131      14.96179484      14.96179484       1.998E-15   3559.72    <-- DIS
     132      14.96179484      14.96179484       1.998E-15   3563.30    <-- DIS
     133      14.96179484      14.96179484       1.998E-15   3566.88    <-- DIS
     134      14.96179484      14.96179484       1.998E-15   3570.47    <-- DIS
     135      14.96179484      14.96179484       1.998E-15   3574.05    <-- DIS
     136      14.96179484      14.96179484       1.998E-15   3577.64    <-- DIS
     137      14.96179484      14.96179484       1.998E-15   3581.22    <-- DIS
     138      14.96179484      14.96179484       1.998E-15   3584.80    <-- DIS
     139      14.96179484      14.96179484       1.998E-15   3588.39    <-- DIS
     140      14.96179484      14.96179484       1.998E-15   3591.97    <-- DIS
     141      14.96179484      14.96179484       1.998E-15   3595.55    <-- DIS
     142      14.96179484      14.96179484       1.998E-15   3599.13    <-- DIS
     143      14.96179484      14.96179484       1.998E-15   3602.71    <-- DIS
     144      14.96179484      14.96179484       1.998E-15   3606.29    <-- DIS
     145      14.96179484      14.96179484       1.998E-15   3609.87    <-- DIS
     146      14.96179484      14.96179484       1.998E-15   3613.46    <-- DIS
     147      14.96179484      14.96179484       1.998E-15   3617.04    <-- DIS
     148      14.96179484      14.96179484       1.998E-15   3620.62    <-- DIS
     149      14.96179484      14.96179484       1.998E-15   3624.20    <-- DIS
     150      14.96179484      14.96179484       1.998E-15   3627.78    <-- DIS
     151      14.96179484      14.96179484       1.998E-15   3631.36    <-- DIS
     152      14.96179484      14.96179484       1.998E-15   3634.94    <-- DIS
     153      14.96179484      14.96179484       1.998E-15   3638.53    <-- DIS
     154      14.96179484      14.96179484       1.998E-15   3642.11    <-- DIS
     155      14.96179484      14.96179484       1.998E-15   3645.69    <-- DIS
     156      14.96179484      14.96179484       1.998E-15   3649.27    <-- DIS
     157      14.96179484      14.96179484       1.998E-15   3652.85    <-- DIS
     158      14.96179484      14.96179484       1.998E-15   3656.44    <-- DIS
     159      14.96179484      14.96179484       1.998E-15   3660.02    <-- DIS
     160      14.96179484      14.96179484       1.998E-15   3663.60    <-- DIS
     161      14.96179484      14.96179484       1.998E-15   3667.18    <-- DIS
     162      14.96179484      14.96179484       1.998E-15   3670.76    <-- DIS
     163      14.96179484      14.96179484       1.998E-15   3674.34    <-- DIS
     164      14.96179484      14.96179484       1.998E-15   3677.93    <-- DIS
     165      14.96179484      14.96179484       1.998E-15   3681.51    <-- DIS
     166      14.96179484      14.96179484       1.998E-15   3685.09    <-- DIS
     167      14.96179484      14.96179484       1.998E-15   3688.67    <-- DIS
     168      14.96179484      14.96179484       1.998E-15   3692.25    <-- DIS
     169      14.96179484      14.96179484       1.998E-15   3695.83    <-- DIS
     170      14.96179484      14.96179484       1.998E-15   3699.41    <-- DIS
     171      14.96179484      14.96179484       1.998E-15   3703.00    <-- DIS
     172      14.96179484      14.96179484       1.998E-15   3706.58    <-- DIS
     173      14.96179484      14.96179484       1.998E-15   3710.16    <-- DIS
     174      14.96179484      14.96179484       1.998E-15   3713.74    <-- DIS
     175      14.96179484      14.96179484       1.998E-15   3717.32    <-- DIS
     176      14.96179484      14.96179484       1.998E-15   3720.91    <-- DIS
     177      14.96179484      14.96179484       1.998E-15   3724.49    <-- DIS
     178      14.96179484      14.96179484       1.998E-15   3728.07    <-- DIS
     179      14.96179484      14.96179484       1.998E-15   3731.65    <-- DIS
     180      14.96179484      14.96179484       1.998E-15   3735.23    <-- DIS
     181      14.96179484      14.96179484       1.998E-15   3738.81    <-- DIS
     182      14.96179484      14.96179484       1.998E-15   3742.39    <-- DIS
     183      14.96179484      14.96179484       1.998E-15   3745.98    <-- DIS
     184      14.96179484      14.96179484       1.998E-15   3749.56    <-- DIS
     185      14.96179484      14.96179484       1.998E-15   3753.14    <-- DIS
     186      14.96179484      14.96179484       1.998E-15   3756.72    <-- DIS
     187      14.96179484      14.96179484       1.998E-15   3760.30    <-- DIS
     188      14.96179484      14.96179484       1.998E-15   3763.88    <-- DIS
     189      14.96179484      14.96179484       1.998E-15   3767.47    <-- DIS
     190      14.96179484      14.96179484       1.998E-15   3771.05    <-- DIS
     191      14.96179484      14.96179484       1.998E-15   3774.63    <-- DIS
     192      14.96179484      14.96179484       1.998E-15   3778.21    <-- DIS
     193      14.96179484      14.96179484       1.998E-15   3781.79    <-- DIS
     194      14.96179484      14.96179484       1.998E-15   3785.37    <-- DIS
     195      14.96179484      14.96179484       1.998E-15   3788.96    <-- DIS
     196      14.96179484      14.96179484       1.998E-15   3792.54    <-- DIS
     197      14.96179484      14.96179484       1.998E-15   3796.12    <-- DIS
     198      14.96179484      14.96179484       1.998E-15   3799.70    <-- DIS
     199      14.96179484      14.96179484       1.998E-15   3803.28    <-- DIS
     200      14.96179484      14.96179484       1.998E-15   3806.86    <-- DIS

     <<< Warning: Maximum number of disentanglement iterations reached >>>
          <<< Disentanglement convergence criteria not satisfied >>>

        Final Omega_I    14.96179484 (Ang^2)

 +----------------------------------------------------------------------------+


 Writing checkpoint file wannier90.chk... done

 Time to disentangle          721.762 (sec)
 
 *------------------------------- WANNIERISE ---------------------------------*
 +--------------------------------------------------------------------+<-- CONV
 | Iter  Delta Spread     RMS Gradient      Spread (Ang^2)      Time  |<-- CONV
 +--------------------------------------------------------------------+<-- CONV
 
 ------------------------------------------------------------------------------
 Initial State
  WF centre and spread    1  ( -2.291519,  2.005335, -0.143092 )    63.93609002
  WF centre and spread    2  (  0.957252,  5.727154,  3.342198 )    20.75818558
  Sum of centres and spreads ( -1.334267,  7.732489,  3.199105 )    84.69427560
 
      0     0.847E+02     0.0000000000       84.6942756046    3808.93  <-- CONV
        O_D=     51.8204382 O_OD=     17.9120425 O_TOT=     84.6942756 <-- SPRD
 ------------------------------------------------------------------------------
 Cycle:      1
  WF centre and spread    1  ( -2.321228,  2.157243, -0.118358 )    41.03928327
  WF centre and spread    2  (  0.965877,  5.634553,  3.297473 )    25.90500949
  Sum of centres and spreads ( -1.355351,  7.791796,  3.179115 )    66.94429276
 
      1    -0.177E+02    20.0525778668       66.9442927631    3808.94  <-- CONV
        O_D=     34.6394868 O_OD=     17.3430111 O_TOT=     66.9442928 <-- SPRD
 Delta: O_D= -0.1718095E+02 O_OD= -0.5690314E+00 O_TOT= -0.1774998E+02 <-- DLTA
 ------------------------------------------------------------------------------

 Writing checkpoint file wannier90.chk... done


 Writing checkpoint file wannier90.chk... done


 Writing checkpoint file wannier90.chk... done


 Writing checkpoint file wannier90.chk... done


 Writing checkpoint file wannier90.chk... done


 Writing checkpoint file wannier90.chk... done


 Writing checkpoint file wannier90.chk... done


 Writing checkpoint file wannier90.chk... done


 Writing checkpoint file wannier90.chk... done


 Writing checkpoint file wannier90.chk... done


 Writing checkpoint file wannier90.chk... done


 Writing checkpoint file wannier90.chk... done


 Writing checkpoint file wannier90.chk... done


 Writing checkpoint file wannier90.chk... done


 Writing checkpoint file wannier90.chk... done


 Writing checkpoint file wannier90.chk... done


 Writing checkpoint file wannier90.chk... done


 Writing checkpoint file wannier90.chk... done


 Writing checkpoint file wannier90.chk... done


 Writing checkpoint file wannier90.chk... done


 Writing checkpoint file wannier90.chk... done


 Writing checkpoint file wannier90.chk... done


 Writing checkpoint file wannier90.chk... done


 Writing checkpoint file wannier90.chk... done


 Writing checkpoint file wannier90.chk... done


 Writing checkpoint file wannier90.chk... done


 Writing checkpoint file wannier90.chk... done


 Writing checkpoint file wannier90.chk... done


 Writing checkpoint file wannier90.chk... done


 Writing checkpoint file wannier90.chk... done


 Writing checkpoint file wannier90.chk... done


 Writing checkpoint file wannier90.chk... done


 Writing checkpoint file wannier90.chk... done


 Writing checkpoint file wannier90.chk... done


 Writing checkpoint file wannier90.chk... done


 Writing checkpoint file wannier90.chk... done


 Writing checkpoint file wannier90.chk... done


 Writing checkpoint file wannier90.chk... done


 Writing checkpoint file wannier90.chk... done


 Writing checkpoint file wannier90.chk... done


 Writing checkpoint file wannier90.chk... done


 Writing checkpoint file wannier90.chk... done


 Writing checkpoint file wannier90.chk... done


 Writing checkpoint file wannier90.chk... done


 Writing checkpoint file wannier90.chk... done


 Writing checkpoint file wannier90.chk... done


 Writing checkpoint file wannier90.chk... done


 Writing checkpoint file wannier90.chk... done


 Writing checkpoint file wannier90.chk... done


 Writing checkpoint file wannier90.chk... done


 Writing checkpoint file wannier90.chk... done


 Writing checkpoint file wannier90.chk... done


 Writing checkpoint file wannier90.chk... done


 Writing checkpoint file wannier90.chk... done


 Writing checkpoint file wannier90.chk... done


 Writing checkpoint file wannier90.chk... done


 Writing checkpoint file wannier90.chk... done


 Writing checkpoint file wannier90.chk... done


 Writing checkpoint file wannier90.chk... done


 Writing checkpoint file wannier90.chk... done


 Writing checkpoint file wannier90.chk... done


 Writing checkpoint file wannier90.chk... done


 Writing checkpoint file wannier90.chk... done


 Writing checkpoint file wannier90.chk... done


 Writing checkpoint file wannier90.chk... done


 Writing checkpoint file wannier90.chk... done


 Writing checkpoint file wannier90.chk... done


 Writing checkpoint file wannier90.chk... done


 Writing checkpoint file wannier90.chk... done


 Writing checkpoint file wannier90.chk... done


 Writing checkpoint file wannier90.chk... done


 Writing checkpoint file wannier90.chk... done


 Writing checkpoint file wannier90.chk... done


 Writing checkpoint file wannier90.chk... done


 Writing checkpoint file wannier90.chk... done


 Writing checkpoint file wannier90.chk... done


 Writing checkpoint file wannier90.chk... done


 Writing checkpoint file wannier90.chk... done


 Writing checkpoint file wannier90.chk... done


 Writing checkpoint file wannier90.chk... done


 Writing checkpoint file wannier90.chk... done


 Writing checkpoint file wannier90.chk... done


 Writing checkpoint file wannier90.chk... done


 Writing checkpoint file wannier90.chk... done


 Writing checkpoint file wannier90.chk... done


 Writing checkpoint file wannier90.chk... done


 Writing checkpoint file wannier90.chk... done


 Writing checkpoint file wannier90.chk... done


 Writing checkpoint file wannier90.chk... done


 Writing checkpoint file wannier90.chk... done


 Writing checkpoint file wannier90.chk... done


 Writing checkpoint file wannier90.chk... done


 Writing checkpoint file wannier90.chk... done


 Writing checkpoint file wannier90.chk... done


 Writing checkpoint file wannier90.chk... done


 Writing checkpoint file wannier90.chk... done


 Writing checkpoint file wannier90.chk... done


 Writing checkpoint file wannier90.chk... done


 Writing checkpoint file wannier90.chk... done

 Cycle:  10000
  WF centre and spread    1  ( -2.271023,  2.498879,  0.113925 )     7.46231680
  WF centre and spread    2  (  1.115799,  5.885701,  3.500746 )     7.57364367
  Sum of centres and spreads ( -1.155224,  8.384579,  3.614672 )    15.03596047
 
  10000    -0.178E-13     0.0000045947       15.0359604679    3904.83  <-- CONV
        O_D=      0.0726434 O_OD=      0.0015222 O_TOT=     15.0359605 <-- SPRD
 Delta: O_D= -0.2223915E-12 O_OD=  0.2059427E-12 O_TOT= -0.1776357E-13 <-- DLTA
 ------------------------------------------------------------------------------

 Writing checkpoint file wannier90.chk... done


 Writing checkpoint file wannier90.chk... done


 Writing checkpoint file wannier90.chk... done


 Writing checkpoint file wannier90.chk... done


 Writing checkpoint file wannier90.chk... done


 Writing checkpoint file wannier90.chk... done


 Writing checkpoint file wannier90.chk... done


 Writing checkpoint file wannier90.chk... done


 Writing checkpoint file wannier90.chk... done


 Writing checkpoint file wannier90.chk... done


 Writing checkpoint file wannier90.chk... done


 Writing checkpoint file wannier90.chk... done


 Writing checkpoint file wannier90.chk... done


 Writing checkpoint file wannier90.chk... done


 Writing checkpoint file wannier90.chk... done


 Writing checkpoint file wannier90.chk... done


 Writing checkpoint file wannier90.chk... done


 Writing checkpoint file wannier90.chk... done


 Writing checkpoint file wannier90.chk... done


 Writing checkpoint file wannier90.chk... done


 Writing checkpoint file wannier90.chk... done


 Writing checkpoint file wannier90.chk... done


 Writing checkpoint file wannier90.chk... done


 Writing checkpoint file wannier90.chk... done


 Writing checkpoint file wannier90.chk... done


 Writing checkpoint file wannier90.chk... done


 Writing checkpoint file wannier90.chk... done


 Writing checkpoint file wannier90.chk... done


 Writing checkpoint file wannier90.chk... done


 Writing checkpoint file wannier90.chk... done


 Writing checkpoint file wannier90.chk... done


 Writing checkpoint file wannier90.chk... done


 Writing checkpoint file wannier90.chk... done


 Writing checkpoint file wannier90.chk... done


 Writing checkpoint file wannier90.chk... done


 Writing checkpoint file wannier90.chk... done


 Writing checkpoint file wannier90.chk... done


 Writing checkpoint file wannier90.chk... done


 Writing checkpoint file wannier90.chk... done


 Writing checkpoint file wannier90.chk... done


 Writing checkpoint file wannier90.chk... done


 Writing checkpoint file wannier90.chk... done


 Writing checkpoint file wannier90.chk... done


 Writing checkpoint file wannier90.chk... done


 Writing checkpoint file wannier90.chk... done


 Writing checkpoint file wannier90.chk... done


 Writing checkpoint file wannier90.chk... done


 Writing checkpoint file wannier90.chk... done


 Writing checkpoint file wannier90.chk... done


 Writing checkpoint file wannier90.chk... done


 Writing checkpoint file wannier90.chk... done


 Writing checkpoint file wannier90.chk... done


 Writing checkpoint file wannier90.chk... done


 Writing checkpoint file wannier90.chk... done


 Writing checkpoint file wannier90.chk... done


 Writing checkpoint file wannier90.chk... done


 Writing checkpoint file wannier90.chk... done


 Writing checkpoint file wannier90.chk... done


 Writing checkpoint file wannier90.chk... done


 Writing checkpoint file wannier90.chk... done


 Writing checkpoint file wannier90.chk... done


 Writing checkpoint file wannier90.chk... done


 Writing checkpoint file wannier90.chk... done


 Writing checkpoint file wannier90.chk... done


 Writing checkpoint file wannier90.chk... done


 Writing checkpoint file wannier90.chk... done


 Writing checkpoint file wannier90.chk... done


 Writing checkpoint file wannier90.chk... done


 Writing checkpoint file wannier90.chk... done


 Writing checkpoint file wannier90.chk... done


 Writing checkpoint file wannier90.chk... done


 Writing checkpoint file wannier90.chk... done


 Writing checkpoint file wannier90.chk... done


 Writing checkpoint file wannier90.chk... done


 Writing checkpoint file wannier90.chk... done


 Writing checkpoint file wannier90.chk... done


 Writing checkpoint file wannier90.chk... done


 Writing checkpoint file wannier90.chk... done


 Writing checkpoint file wannier90.chk... done


 Writing checkpoint file wannier90.chk... done


 Writing checkpoint file wannier90.chk... done


 Writing checkpoint file wannier90.chk... done


 Writing checkpoint file wannier90.chk... done


 Writing checkpoint file wannier90.chk... done


 Writing checkpoint file wannier90.chk... done


 Writing checkpoint file wannier90.chk... done


 Writing checkpoint file wannier90.chk... done


 Writing checkpoint file wannier90.chk... done


 Writing checkpoint file wannier90.chk... done


 Writing checkpoint file wannier90.chk... done


 Writing checkpoint file wannier90.chk... done


 Writing checkpoint file wannier90.chk... done


 Writing checkpoint file wannier90.chk... done


 Writing checkpoint file wannier90.chk... done


 Writing checkpoint file wannier90.chk... done


 Writing checkpoint file wannier90.chk... done


 Writing checkpoint file wannier90.chk... done


 Writing checkpoint file wannier90.chk... done


 Writing checkpoint file wannier90.chk... done


 Writing checkpoint file wannier90.chk... done

 Cycle:  20000
  WF centre and spread    1  ( -2.271023,  2.498879,  0.113925 )     7.46231695
  WF centre and spread    2  (  1.115799,  5.885701,  3.500746 )     7.57364352
  Sum of centres and spreads ( -1.155224,  8.384579,  3.614672 )    15.03596047
 
  20000    -0.533E-14     0.0000011482       15.0359604677    3993.59  <-- CONV
        O_D=      0.0726434 O_OD=      0.0015222 O_TOT=     15.0359605 <-- SPRD
 Delta: O_D= -0.2775419E-12 O_OD=  0.2726547E-12 O_TOT= -0.5329071E-14 <-- DLTA
 ------------------------------------------------------------------------------

 Writing checkpoint file wannier90.chk... done


 Writing checkpoint file wannier90.chk... done


 Writing checkpoint file wannier90.chk... done


 Writing checkpoint file wannier90.chk... done


 Writing checkpoint file wannier90.chk... done


 Writing checkpoint file wannier90.chk... done


 Writing checkpoint file wannier90.chk... done


 Writing checkpoint file wannier90.chk... done


 Writing checkpoint file wannier90.chk... done


 Writing checkpoint file wannier90.chk... done


 Writing checkpoint file wannier90.chk... done


 Writing checkpoint file wannier90.chk... done


 Writing checkpoint file wannier90.chk... done


 Writing checkpoint file wannier90.chk... done


 Writing checkpoint file wannier90.chk... done


 Writing checkpoint file wannier90.chk... done


 Writing checkpoint file wannier90.chk... done


 Writing checkpoint file wannier90.chk... done


 Writing checkpoint file wannier90.chk... done


 Writing checkpoint file wannier90.chk... done


 Writing checkpoint file wannier90.chk... done


 Writing checkpoint file wannier90.chk... done


 Writing checkpoint file wannier90.chk... done


 Writing checkpoint file wannier90.chk... done


 Writing checkpoint file wannier90.chk... done


 Writing checkpoint file wannier90.chk... done


 Writing checkpoint file wannier90.chk... done


 Writing checkpoint file wannier90.chk... done


 Writing checkpoint file wannier90.chk... done


 Writing checkpoint file wannier90.chk... done


 Writing checkpoint file wannier90.chk... done


 Writing checkpoint file wannier90.chk... done


 Writing checkpoint file wannier90.chk... done


 Writing checkpoint file wannier90.chk... done


 Writing checkpoint file wannier90.chk... done


 Writing checkpoint file wannier90.chk... done


 Writing checkpoint file wannier90.chk... done


 Writing checkpoint file wannier90.chk... done


 Writing checkpoint file wannier90.chk... done


 Writing checkpoint file wannier90.chk... done


 Writing checkpoint file wannier90.chk... done


 Writing checkpoint file wannier90.chk... done


 Writing checkpoint file wannier90.chk... done


 Writing checkpoint file wannier90.chk... done


 Writing checkpoint file wannier90.chk... done


 Writing checkpoint file wannier90.chk... done


 Writing checkpoint file wannier90.chk... done


 Writing checkpoint file wannier90.chk... done


 Writing checkpoint file wannier90.chk... done


 Writing checkpoint file wannier90.chk... done


 Writing checkpoint file wannier90.chk... done


 Writing checkpoint file wannier90.chk... done


 Writing checkpoint file wannier90.chk... done


 Writing checkpoint file wannier90.chk... done


 Writing checkpoint file wannier90.chk... done


 Writing checkpoint file wannier90.chk... done


 Writing checkpoint file wannier90.chk... done


 Writing checkpoint file wannier90.chk... done


 Writing checkpoint file wannier90.chk... done


 Writing checkpoint file wannier90.chk... done


 Writing checkpoint file wannier90.chk... done


 Writing checkpoint file wannier90.chk... done


 Writing checkpoint file wannier90.chk... done


 Writing checkpoint file wannier90.chk... done


 Writing checkpoint file wannier90.chk... done


 Writing checkpoint file wannier90.chk... done


 Writing checkpoint file wannier90.chk... done


 Writing checkpoint file wannier90.chk... done


 Writing checkpoint file wannier90.chk... done


 Writing checkpoint file wannier90.chk... done


 Writing checkpoint file wannier90.chk... done


 Writing checkpoint file wannier90.chk... done


 Writing checkpoint file wannier90.chk... done


 Writing checkpoint file wannier90.chk... done


 Writing checkpoint file wannier90.chk... done


 Writing checkpoint file wannier90.chk... done


 Writing checkpoint file wannier90.chk... done


 Writing checkpoint file wannier90.chk... done


 Writing checkpoint file wannier90.chk... done


 Writing checkpoint file wannier90.chk... done


 Writing checkpoint file wannier90.chk... done


 Writing checkpoint file wannier90.chk... done


 Writing checkpoint file wannier90.chk... done


 Writing checkpoint file wannier90.chk... done


 Writing checkpoint file wannier90.chk... done


 Writing checkpoint file wannier90.chk... done


 Writing checkpoint file wannier90.chk... done


 Writing checkpoint file wannier90.chk... done


 Writing checkpoint file wannier90.chk... done


 Writing checkpoint file wannier90.chk... done


 Writing checkpoint file wannier90.chk... done


 Writing checkpoint file wannier90.chk... done


 Writing checkpoint file wannier90.chk... done


 Writing checkpoint file wannier90.chk... done


 Writing checkpoint file wannier90.chk... done


 Writing checkpoint file wannier90.chk... done


 Writing checkpoint file wannier90.chk... done


 Writing checkpoint file wannier90.chk... done


 Writing checkpoint file wannier90.chk... done


 Writing checkpoint file wannier90.chk... done

 Cycle:  30000
  WF centre and spread    1  ( -2.271023,  2.498879,  0.113925 )     7.46231699
  WF centre and spread    2  (  1.115799,  5.885701,  3.500746 )     7.57364348
  Sum of centres and spreads ( -1.155224,  8.384579,  3.614672 )    15.03596047
 
  30000    -0.178E-14     0.0000002873       15.0359604677    4082.29  <-- CONV
        O_D=      0.0726434 O_OD=      0.0015222 O_TOT=     15.0359605 <-- SPRD
 Delta: O_D= -0.4143907E-13 O_OD=  0.4152039E-13 O_TOT= -0.1776357E-14 <-- DLTA
 ------------------------------------------------------------------------------

 Writing checkpoint file wannier90.chk... done


 Writing checkpoint file wannier90.chk... done


 Writing checkpoint file wannier90.chk... done


 Writing checkpoint file wannier90.chk... done


 Writing checkpoint file wannier90.chk... done


 Writing checkpoint file wannier90.chk... done


 Writing checkpoint file wannier90.chk... done


 Writing checkpoint file wannier90.chk... done


 Writing checkpoint file wannier90.chk... done


 Writing checkpoint file wannier90.chk... done


 Writing checkpoint file wannier90.chk... done


 Writing checkpoint file wannier90.chk... done


 Writing checkpoint file wannier90.chk... done


 Writing checkpoint file wannier90.chk... done


 Writing checkpoint file wannier90.chk... done


 Writing checkpoint file wannier90.chk... done


 Writing checkpoint file wannier90.chk... done


 Writing checkpoint file wannier90.chk... done


 Writing checkpoint file wannier90.chk... done


 Writing checkpoint file wannier90.chk... done


 Writing checkpoint file wannier90.chk... done


 Writing checkpoint file wannier90.chk... done


 Writing checkpoint file wannier90.chk... done


 Writing checkpoint file wannier90.chk... done


 Writing checkpoint file wannier90.chk... done


 Writing checkpoint file wannier90.chk... done


 Writing checkpoint file wannier90.chk... done


 Writing checkpoint file wannier90.chk... done


 Writing checkpoint file wannier90.chk... done


 Writing checkpoint file wannier90.chk... done


 Writing checkpoint file wannier90.chk... done


 Writing checkpoint file wannier90.chk... done


 Writing checkpoint file wannier90.chk... done


 Writing checkpoint file wannier90.chk... done


 Writing checkpoint file wannier90.chk... done


 Writing checkpoint file wannier90.chk... done


 Writing checkpoint file wannier90.chk... done


 Writing checkpoint file wannier90.chk... done


 Writing checkpoint file wannier90.chk... done


 Writing checkpoint file wannier90.chk... done


 Writing checkpoint file wannier90.chk... done


 Writing checkpoint file wannier90.chk... done


 Writing checkpoint file wannier90.chk... done


 Writing checkpoint file wannier90.chk... done


 Writing checkpoint file wannier90.chk... done


 Writing checkpoint file wannier90.chk... done


 Writing checkpoint file wannier90.chk... done


 Writing checkpoint file wannier90.chk... done


 Writing checkpoint file wannier90.chk... done


 Writing checkpoint file wannier90.chk... done


 Writing checkpoint file wannier90.chk... done


 Writing checkpoint file wannier90.chk... done


 Writing checkpoint file wannier90.chk... done


 Writing checkpoint file wannier90.chk... done


 Writing checkpoint file wannier90.chk... done


 Writing checkpoint file wannier90.chk... done


 Writing checkpoint file wannier90.chk... done


 Writing checkpoint file wannier90.chk... done


 Writing checkpoint file wannier90.chk... done


 Writing checkpoint file wannier90.chk... done


 Writing checkpoint file wannier90.chk... done


 Writing checkpoint file wannier90.chk... done


 Writing checkpoint file wannier90.chk... done


 Writing checkpoint file wannier90.chk... done


 Writing checkpoint file wannier90.chk... done


 Writing checkpoint file wannier90.chk... done


 Writing checkpoint file wannier90.chk... done


 Writing checkpoint file wannier90.chk... done


 Writing checkpoint file wannier90.chk... done


 Writing checkpoint file wannier90.chk... done


 Writing checkpoint file wannier90.chk... done


 Writing checkpoint file wannier90.chk... done


 Writing checkpoint file wannier90.chk... done


 Writing checkpoint file wannier90.chk... done


 Writing checkpoint file wannier90.chk... done


 Writing checkpoint file wannier90.chk... done


 Writing checkpoint file wannier90.chk... done


 Writing checkpoint file wannier90.chk... done


 Writing checkpoint file wannier90.chk... done


 Writing checkpoint file wannier90.chk... done


 Writing checkpoint file wannier90.chk... done


 Writing checkpoint file wannier90.chk... done


 Writing checkpoint file wannier90.chk... done


 Writing checkpoint file wannier90.chk... done


 Writing checkpoint file wannier90.chk... done


 Writing checkpoint file wannier90.chk... done


 Writing checkpoint file wannier90.chk... done


 Writing checkpoint file wannier90.chk... done


 Writing checkpoint file wannier90.chk... done


 Writing checkpoint file wannier90.chk... done


 Writing checkpoint file wannier90.chk... done


 Writing checkpoint file wannier90.chk... done


 Writing checkpoint file wannier90.chk... done


 Writing checkpoint file wannier90.chk... done


 Writing checkpoint file wannier90.chk... done


 Writing checkpoint file wannier90.chk... done


 Writing checkpoint file wannier90.chk... done


 Writing checkpoint file wannier90.chk... done


 Writing checkpoint file wannier90.chk... done


 Writing checkpoint file wannier90.chk... done

 Cycle:  40000
  WF centre and spread    1  ( -2.271023,  2.498879,  0.113925 )     7.46231700
  WF centre and spread    2  (  1.115799,  5.885701,  3.500746 )     7.57364347
  Sum of centres and spreads ( -1.155224,  8.384579,  3.614672 )    15.03596047
 
  40000    -0.178E-14     0.0000000719       15.0359604677    4170.95  <-- CONV
        O_D=      0.0726434 O_OD=      0.0015222 O_TOT=     15.0359605 <-- SPRD
 Delta: O_D= -0.3469447E-14 O_OD=  0.3471615E-14 O_TOT= -0.1776357E-14 <-- DLTA
 ------------------------------------------------------------------------------

 Writing checkpoint file wannier90.chk... done


 Writing checkpoint file wannier90.chk... done


 Writing checkpoint file wannier90.chk... done


 Writing checkpoint file wannier90.chk... done


 Writing checkpoint file wannier90.chk... done


 Writing checkpoint file wannier90.chk... done


 Writing checkpoint file wannier90.chk... done


 Writing checkpoint file wannier90.chk... done


 Writing checkpoint file wannier90.chk... done


 Writing checkpoint file wannier90.chk... done


 Writing checkpoint file wannier90.chk... done


 Writing checkpoint file wannier90.chk... done


 Writing checkpoint file wannier90.chk... done


 Writing checkpoint file wannier90.chk... done


 Writing checkpoint file wannier90.chk... done


 Writing checkpoint file wannier90.chk... done


 Writing checkpoint file wannier90.chk... done


 Writing checkpoint file wannier90.chk... done


 Writing checkpoint file wannier90.chk... done


 Writing checkpoint file wannier90.chk... done


 Writing checkpoint file wannier90.chk... done


 Writing checkpoint file wannier90.chk... done


 Writing checkpoint file wannier90.chk... done


 Writing checkpoint file wannier90.chk... done


 Writing checkpoint file wannier90.chk... done


 Writing checkpoint file wannier90.chk... done


 Writing checkpoint file wannier90.chk... done


 Writing checkpoint file wannier90.chk... done


 Writing checkpoint file wannier90.chk... done


 Writing checkpoint file wannier90.chk... done


 Writing checkpoint file wannier90.chk... done


 Writing checkpoint file wannier90.chk... done


 Writing checkpoint file wannier90.chk... done


 Writing checkpoint file wannier90.chk... done


 Writing checkpoint file wannier90.chk... done


 Writing checkpoint file wannier90.chk... done


 Writing checkpoint file wannier90.chk... done


 Writing checkpoint file wannier90.chk... done


 Writing checkpoint file wannier90.chk... done


 Writing checkpoint file wannier90.chk... done


 Writing checkpoint file wannier90.chk... done


 Writing checkpoint file wannier90.chk... done


 Writing checkpoint file wannier90.chk... done


 Writing checkpoint file wannier90.chk... done


 Writing checkpoint file wannier90.chk... done


 Writing checkpoint file wannier90.chk... done


 Writing checkpoint file wannier90.chk... done


 Writing checkpoint file wannier90.chk... done


 Writing checkpoint file wannier90.chk... done


 Writing checkpoint file wannier90.chk... done


 Writing checkpoint file wannier90.chk... done


 Writing checkpoint file wannier90.chk... done


 Writing checkpoint file wannier90.chk... done


 Writing checkpoint file wannier90.chk... done


 Writing checkpoint file wannier90.chk... done


 Writing checkpoint file wannier90.chk... done


 Writing checkpoint file wannier90.chk... done


 Writing checkpoint file wannier90.chk... done


 Writing checkpoint file wannier90.chk... done


 Writing checkpoint file wannier90.chk... done


 Writing checkpoint file wannier90.chk... done


 Writing checkpoint file wannier90.chk... done


 Writing checkpoint file wannier90.chk... done


 Writing checkpoint file wannier90.chk... done


 Writing checkpoint file wannier90.chk... done


 Writing checkpoint file wannier90.chk... done


 Writing checkpoint file wannier90.chk... done


 Writing checkpoint file wannier90.chk... done


 Writing checkpoint file wannier90.chk... done


 Writing checkpoint file wannier90.chk... done


 Writing checkpoint file wannier90.chk... done


 Writing checkpoint file wannier90.chk... done


 Writing checkpoint file wannier90.chk... done


 Writing checkpoint file wannier90.chk... done


 Writing checkpoint file wannier90.chk... done


[...]


 Writing checkpoint file wannier90.chk... done


 Writing checkpoint file wannier90.chk... done


 Writing checkpoint file wannier90.chk... done


 Writing checkpoint file wannier90.chk... done


 Writing checkpoint file wannier90.chk... done


 Writing checkpoint file wannier90.chk... done


 Writing checkpoint file wannier90.chk... done


 Writing checkpoint file wannier90.chk... done


 Writing checkpoint file wannier90.chk... done


 Writing checkpoint file wannier90.chk... done


 Writing checkpoint file wannier90.chk... done


 Writing checkpoint file wannier90.chk... done


 Writing checkpoint file wannier90.chk... done


 Writing checkpoint file wannier90.chk... done


 Writing checkpoint file wannier90.chk... done


 Writing checkpoint file wannier90.chk... done


 Writing checkpoint file wannier90.chk... done


 Writing checkpoint file wannier90.chk... done


 Writing checkpoint file wannier90.chk... done


 Writing checkpoint file wannier90.chk... done

 Cycle:  70000
  WF centre and spread    1  ( -2.271023,  2.498879,  0.113925 )     7.46231700
  WF centre and spread    2  (  1.115799,  5.885701,  3.500746 )     7.57364347
  Sum of centres and spreads ( -1.155224,  8.384579,  3.614672 )    15.03596047
 
  70000     0.000E+00     0.0000000071       15.0359604677    4436.80  <-- CONV
        O_D=      0.0726434 O_OD=      0.0015222 O_TOT=     15.0359605 <-- SPRD
 Delta: O_D= -0.4302114E-15 O_OD=  0.3541004E-15 O_TOT=  0.0000000E+00 <-- DLTA
 ------------------------------------------------------------------------------

 Writing checkpoint file wannier90.chk... done


 Writing checkpoint file wannier90.chk... done


 Writing checkpoint file wannier90.chk... done


 Writing checkpoint file wannier90.chk... done


 Writing checkpoint file wannier90.chk... done


 Writing checkpoint file wannier90.chk... done


 Writing checkpoint file wannier90.chk... done


 Writing checkpoint file wannier90.chk... done


 Writing checkpoint file wannier90.chk... done


 Writing checkpoint file wannier90.chk... done


 Writing checkpoint file wannier90.chk... done


 Writing checkpoint file wannier90.chk... done


 Writing checkpoint file wannier90.chk... done


 Writing checkpoint file wannier90.chk... done


 Writing checkpoint file wannier90.chk... done


 Writing checkpoint file wannier90.chk... done


 Writing checkpoint file wannier90.chk... done


 Writing checkpoint file wannier90.chk... done


 Writing checkpoint file wannier90.chk... done


 Writing checkpoint file wannier90.chk... done


 Writing checkpoint file wannier90.chk... done


 Writing checkpoint file wannier90.chk... done


 Writing checkpoint file wannier90.chk... done


 Writing checkpoint file wannier90.chk... done


 Writing checkpoint file wannier90.chk... done


 Writing checkpoint file wannier90.chk... done


 Writing checkpoint file wannier90.chk... done


 Writing checkpoint file wannier90.chk... done


 Writing checkpoint file wannier90.chk... done


 Writing checkpoint file wannier90.chk... done


 Writing checkpoint file wannier90.chk... done


 Writing checkpoint file wannier90.chk... done


 Writing checkpoint file wannier90.chk... done


 Writing checkpoint file wannier90.chk... done


 Writing checkpoint file wannier90.chk... done


 Writing checkpoint file wannier90.chk... done


 Writing checkpoint file wannier90.chk... done


 Writing checkpoint file wannier90.chk... done


 Writing checkpoint file wannier90.chk... done


 Writing checkpoint file wannier90.chk... done


 Writing checkpoint file wannier90.chk... done


 Writing checkpoint file wannier90.chk... done


 Writing checkpoint file wannier90.chk... done


 Writing checkpoint file wannier90.chk... done


 Writing checkpoint file wannier90.chk... done


 Writing checkpoint file wannier90.chk... done


 Writing checkpoint file wannier90.chk... done


 Writing checkpoint file wannier90.chk... done


 Writing checkpoint file wannier90.chk... done


 Writing checkpoint file wannier90.chk... done


 Writing checkpoint file wannier90.chk... done


 Writing checkpoint file wannier90.chk... done


 Writing checkpoint file wannier90.chk... done


 Writing checkpoint file wannier90.chk... done


 Writing checkpoint file wannier90.chk... done


 Writing checkpoint file wannier90.chk... done


 Writing checkpoint file wannier90.chk... done


 Writing checkpoint file wannier90.chk... done


 Writing checkpoint file wannier90.chk... done


 Writing checkpoint file wannier90.chk... done


 Writing checkpoint file wannier90.chk... done


 Writing checkpoint file wannier90.chk... done


 Writing checkpoint file wannier90.chk... done


 Writing checkpoint file wannier90.chk... done


 Writing checkpoint file wannier90.chk... done


 Writing checkpoint file wannier90.chk... done


 Writing checkpoint file wannier90.chk... done


 Writing checkpoint file wannier90.chk... done


 Writing checkpoint file wannier90.chk... done


 Writing checkpoint file wannier90.chk... done


 Writing checkpoint file wannier90.chk... done


 Writing checkpoint file wannier90.chk... done


 Writing checkpoint file wannier90.chk... done


 Writing checkpoint file wannier90.chk... done


 Writing checkpoint file wannier90.chk... done


 Writing checkpoint file wannier90.chk... done


 Writing checkpoint file wannier90.chk... done


 Writing checkpoint file wannier90.chk... done


 Writing checkpoint file wannier90.chk... done


 Writing checkpoint file wannier90.chk... done


 Writing checkpoint file wannier90.chk... done


 Writing checkpoint file wannier90.chk... done


 Writing checkpoint file wannier90.chk... done


 Writing checkpoint file wannier90.chk... done


 Writing checkpoint file wannier90.chk... done


 Writing checkpoint file wannier90.chk... done


 Writing checkpoint file wannier90.chk... done


 Writing checkpoint file wannier90.chk... done


 Writing checkpoint file wannier90.chk... done


 Writing checkpoint file wannier90.chk... done


 Writing checkpoint file wannier90.chk... done


 Writing checkpoint file wannier90.chk... done


 Writing checkpoint file wannier90.chk... done


 Writing checkpoint file wannier90.chk... done


 Writing checkpoint file wannier90.chk... done


 Writing checkpoint file wannier90.chk... done


 Writing checkpoint file wannier90.chk... done


 Writing checkpoint file wannier90.chk... done


 Writing checkpoint file wannier90.chk... done


 Writing checkpoint file wannier90.chk... done

 Cycle:  80000
  WF centre and spread    1  ( -2.271023,  2.498879,  0.113925 )     7.46231700
  WF centre and spread    2  (  1.115799,  5.885701,  3.500746 )     7.57364347
  Sum of centres and spreads ( -1.155224,  8.384579,  3.614672 )    15.03596047
 
  80000    -0.178E-14     0.0000000048       15.0359604677    4525.43  <-- CONV
        O_D=      0.0726434 O_OD=      0.0015222 O_TOT=     15.0359605 <-- SPRD
 Delta: O_D= -0.1804112E-15 O_OD=  0.2265983E-15 O_TOT= -0.1776357E-14 <-- DLTA
 ------------------------------------------------------------------------------

 Writing checkpoint file wannier90.chk... done


 Writing checkpoint file wannier90.chk... done


 Writing checkpoint file wannier90.chk... done


 Writing checkpoint file wannier90.chk... done


 Writing checkpoint file wannier90.chk... done


 Writing checkpoint file wannier90.chk... done


 Writing checkpoint file wannier90.chk... done


 Writing checkpoint file wannier90.chk... done


 Writing checkpoint file wannier90.chk... done


 Writing checkpoint file wannier90.chk... done


 Writing checkpoint file wannier90.chk... done


 Writing checkpoint file wannier90.chk... done


 Writing checkpoint file wannier90.chk... done


 Writing checkpoint file wannier90.chk... done


 Writing checkpoint file wannier90.chk... done


 Writing checkpoint file wannier90.chk... done


 Writing checkpoint file wannier90.chk... done


 Writing checkpoint file wannier90.chk... done


 Writing checkpoint file wannier90.chk... done


 Writing checkpoint file wannier90.chk... done


 Writing checkpoint file wannier90.chk... done


 Writing checkpoint file wannier90.chk... done


 Writing checkpoint file wannier90.chk... done


 Writing checkpoint file wannier90.chk... done


 Writing checkpoint file wannier90.chk... done


 Writing checkpoint file wannier90.chk... done


 Writing checkpoint file wannier90.chk... done


 Writing checkpoint file wannier90.chk... done


 Writing checkpoint file wannier90.chk... done


 Writing checkpoint file wannier90.chk... done


 Writing checkpoint file wannier90.chk... done


 Writing checkpoint file wannier90.chk... done


 Writing checkpoint file wannier90.chk... done


 Writing checkpoint file wannier90.chk... done


 Writing checkpoint file wannier90.chk... done


 Writing checkpoint file wannier90.chk... done


 Writing checkpoint file wannier90.chk... done


 Writing checkpoint file wannier90.chk... done


 Writing checkpoint file wannier90.chk... done


 Writing checkpoint file wannier90.chk... done


 Writing checkpoint file wannier90.chk... done


 Writing checkpoint file wannier90.chk... done


 Writing checkpoint file wannier90.chk... done


 Writing checkpoint file wannier90.chk... done


 Writing checkpoint file wannier90.chk... done


 Writing checkpoint file wannier90.chk... done


 Writing checkpoint file wannier90.chk... done


 Writing checkpoint file wannier90.chk... done


 Writing checkpoint file wannier90.chk... done


 Writing checkpoint file wannier90.chk... done


 Writing checkpoint file wannier90.chk... done


 Writing checkpoint file wannier90.chk... done


 Writing checkpoint file wannier90.chk... done


 Writing checkpoint file wannier90.chk... done


 Writing checkpoint file wannier90.chk... done


 Writing checkpoint file wannier90.chk... done


 Writing checkpoint file wannier90.chk... done


 Writing checkpoint file wannier90.chk... done


 Writing checkpoint file wannier90.chk... done


 Writing checkpoint file wannier90.chk... done


 Writing checkpoint file wannier90.chk... done


 Writing checkpoint file wannier90.chk... done


 Writing checkpoint file wannier90.chk... done


 Writing checkpoint file wannier90.chk... done


 Writing checkpoint file wannier90.chk... done


 Writing checkpoint file wannier90.chk... done


 Writing checkpoint file wannier90.chk... done


 Writing checkpoint file wannier90.chk... done


 Writing checkpoint file wannier90.chk... done


 Writing checkpoint file wannier90.chk... done


 Writing checkpoint file wannier90.chk... done


 Writing checkpoint file wannier90.chk... done


 Writing checkpoint file wannier90.chk... done


 Writing checkpoint file wannier90.chk... done


 Writing checkpoint file wannier90.chk... done


 Writing checkpoint file wannier90.chk... done


 Writing checkpoint file wannier90.chk... done


 Writing checkpoint file wannier90.chk... done


 Writing checkpoint file wannier90.chk... done


 Writing checkpoint file wannier90.chk... done


 Writing checkpoint file wannier90.chk... done


 Writing checkpoint file wannier90.chk... done


 Writing checkpoint file wannier90.chk... done


 Writing checkpoint file wannier90.chk... done


 Writing checkpoint file wannier90.chk... done


 Writing checkpoint file wannier90.chk... done


 Writing checkpoint file wannier90.chk... done


 Writing checkpoint file wannier90.chk... done


 Writing checkpoint file wannier90.chk... done


 Writing checkpoint file wannier90.chk... done


 Writing checkpoint file wannier90.chk... done


 Writing checkpoint file wannier90.chk... done


 Writing checkpoint file wannier90.chk... done


 Writing checkpoint file wannier90.chk... done


 Writing checkpoint file wannier90.chk... done


 Writing checkpoint file wannier90.chk... done


 Writing checkpoint file wannier90.chk... done


 Writing checkpoint file wannier90.chk... done


 Writing checkpoint file wannier90.chk... done


 Writing checkpoint file wannier90.chk... done

 Cycle:  90000
  WF centre and spread    1  ( -2.271023,  2.498879,  0.113925 )     7.46231700
  WF centre and spread    2  (  1.115799,  5.885701,  3.500746 )     7.57364347
  Sum of centres and spreads ( -1.155224,  8.384579,  3.614672 )    15.03596047
 
  90000     0.000E+00     0.0000000032       15.0359604677    4614.07  <-- CONV
        O_D=      0.0726434 O_OD=      0.0015222 O_TOT=     15.0359605 <-- SPRD
 Delta: O_D= -0.9714451E-16 O_OD=  0.1600282E-15 O_TOT=  0.0000000E+00 <-- DLTA
 ------------------------------------------------------------------------------

 Writing checkpoint file wannier90.chk... done


 Writing checkpoint file wannier90.chk... done


 Writing checkpoint file wannier90.chk... done


 Writing checkpoint file wannier90.chk... done


 Writing checkpoint file wannier90.chk... done


 Writing checkpoint file wannier90.chk... done


 Writing checkpoint file wannier90.chk... done


 Writing checkpoint file wannier90.chk... done


 Writing checkpoint file wannier90.chk... done


 Writing checkpoint file wannier90.chk... done


 Writing checkpoint file wannier90.chk... done


 Writing checkpoint file wannier90.chk... done


 Writing checkpoint file wannier90.chk... done


 Writing checkpoint file wannier90.chk... done


 Writing checkpoint file wannier90.chk... done


 Writing checkpoint file wannier90.chk... done


 Writing checkpoint file wannier90.chk... done


 Writing checkpoint file wannier90.chk... done


 Writing checkpoint file wannier90.chk... done


 Writing checkpoint file wannier90.chk... done


 Writing checkpoint file wannier90.chk... done


 Writing checkpoint file wannier90.chk... done


 Writing checkpoint file wannier90.chk... done


 Writing checkpoint file wannier90.chk... done


 Writing checkpoint file wannier90.chk... done


 Writing checkpoint file wannier90.chk... done


 Writing checkpoint file wannier90.chk... done


 Writing checkpoint file wannier90.chk... done


 Writing checkpoint file wannier90.chk... done


 Writing checkpoint file wannier90.chk... done


 Writing checkpoint file wannier90.chk... done


 Writing checkpoint file wannier90.chk... done


 Writing checkpoint file wannier90.chk... done


 Writing checkpoint file wannier90.chk... done


 Writing checkpoint file wannier90.chk... done


 Writing checkpoint file wannier90.chk... done


 Writing checkpoint file wannier90.chk... done


 Writing checkpoint file wannier90.chk... done


 Writing checkpoint file wannier90.chk... done


 Writing checkpoint file wannier90.chk... done


 Writing checkpoint file wannier90.chk... done


 Writing checkpoint file wannier90.chk... done


 Writing checkpoint file wannier90.chk... done


 Writing checkpoint file wannier90.chk... done


 Writing checkpoint file wannier90.chk... done


 Writing checkpoint file wannier90.chk... done


 Writing checkpoint file wannier90.chk... done


 Writing checkpoint file wannier90.chk... done


 Writing checkpoint file wannier90.chk... done


 Writing checkpoint file wannier90.chk... done


 Writing checkpoint file wannier90.chk... done


 Writing checkpoint file wannier90.chk... done


 Writing checkpoint file wannier90.chk... done


 Writing checkpoint file wannier90.chk... done


 Writing checkpoint file wannier90.chk... done


 Writing checkpoint file wannier90.chk... done


 Writing checkpoint file wannier90.chk... done


 Writing checkpoint file wannier90.chk... done


 Writing checkpoint file wannier90.chk... done


 Writing checkpoint file wannier90.chk... done


 Writing checkpoint file wannier90.chk... done


 Writing checkpoint file wannier90.chk... done


 Writing checkpoint file wannier90.chk... done


 Writing checkpoint file wannier90.chk... done


 Writing checkpoint file wannier90.chk... done


 Writing checkpoint file wannier90.chk... done


 Writing checkpoint file wannier90.chk... done


 Writing checkpoint file wannier90.chk... done


 Writing checkpoint file wannier90.chk... done


 Writing checkpoint file wannier90.chk... done


 Writing checkpoint file wannier90.chk... done


 Writing checkpoint file wannier90.chk... done


 Writing checkpoint file wannier90.chk... done


 Writing checkpoint file wannier90.chk... done


 Writing checkpoint file wannier90.chk... done


 Writing checkpoint file wannier90.chk... done


 Writing checkpoint file wannier90.chk... done


 Writing checkpoint file wannier90.chk... done


 Writing checkpoint file wannier90.chk... done


 Writing checkpoint file wannier90.chk... done


 Writing checkpoint file wannier90.chk... done


 Writing checkpoint file wannier90.chk... done


 Writing checkpoint file wannier90.chk... done


 Writing checkpoint file wannier90.chk... done


 Writing checkpoint file wannier90.chk... done


 Writing checkpoint file wannier90.chk... done


 Writing checkpoint file wannier90.chk... done


 Writing checkpoint file wannier90.chk... done


 Writing checkpoint file wannier90.chk... done


 Writing checkpoint file wannier90.chk... done


 Writing checkpoint file wannier90.chk... done


 Writing checkpoint file wannier90.chk... done


 Writing checkpoint file wannier90.chk... done


 Writing checkpoint file wannier90.chk... done


 Writing checkpoint file wannier90.chk... done


 Writing checkpoint file wannier90.chk... done


 Writing checkpoint file wannier90.chk... done


 Writing checkpoint file wannier90.chk... done


 Writing checkpoint file wannier90.chk... done


 Writing checkpoint file wannier90.chk... done

 Cycle: 100000
  WF centre and spread    1  ( -2.271023,  2.498879,  0.113925 )     7.46231700
  WF centre and spread    2  (  1.115799,  5.885701,  3.500746 )     7.57364347
  Sum of centres and spreads ( -1.155224,  8.384579,  3.614672 )    15.03596047
 
 100000     0.000E+00     0.0000000022       15.0359604677    4702.71  <-- CONV
        O_D=      0.0726434 O_OD=      0.0015222 O_TOT=     15.0359605 <-- SPRD
 Delta: O_D= -0.1110223E-15 O_OD=  0.9280771E-16 O_TOT=  0.0000000E+00 <-- DLTA
 ------------------------------------------------------------------------------

 Writing checkpoint file wannier90.chk... done

 Final State
  WF centre and spread    1  ( -2.271023,  2.498879,  0.113925 )     7.46231700
  WF centre and spread    2  (  1.115799,  5.885701,  3.500746 )     7.57364347
  Sum of centres and spreads ( -1.155224,  8.384579,  3.614672 )    15.03596047
 
         Spreads (Ang^2)       Omega I      =    14.961794841
        ================       Omega D      =     0.072643408
                               Omega OD     =     0.001522218
    Final Spread (Ang^2)       Omega Total  =    15.035960468
 ------------------------------------------------------------------------------

 Writing checkpoint file wannier90.chk... done

 Time for wannierise          893.792 (sec)
 *---------------------------------------------------------------------------*
 |                               PLOTTING                                    |
 *---------------------------------------------------------------------------*
 
 
 Calculating interpolated band-structure
 
 Time to calculate interpolated band structure       0.040 (sec)
 
 Time for plotting              0.160 (sec)
 Total Execution Time        1616.373 (sec)

 *===========================================================================*
 |                             TIMING INFORMATION                            |
 *===========================================================================*
 |    Tag                                                Ncalls      Time (s)|
 |---------------------------------------------------------------------------|
 |kmesh: get                                        :         2         1.275|
 |dis: main                                         :         1       720.108|
 |wann: main                                        :         1       893.789|
 |plot: main                                        :         1         0.160|
 *---------------------------------------------------------------------------*
 
 All done: wannier90 exiting
