 written on 14Jun2024 at 03:01:05 
           2
        1451
    2    2    2    3    1    1    2    1    2    2    2    2    2    2    2
    2    3    1    1    1    1    1    2    1    1    1    1    2    1    1
    1    2    1    1    2    1    2    2    2    2    2    2    2    2    2
    2    2    3    1    1    1    1    1    1    1    1    2    1    1    1
    1    1    1    1    2    1    1    1    1    1    1    2    1    1    1
    1    1    2    1    1    1    1    2    1    1    1    2    1    1    2
    1    2    2    3    2    2    2    2    2    2    2    2    2    1    1
    1    1    1    1    1    1    1    1    1    1    1    1    1    1    1
    1    1    1    1    2    1    1    1    1    1    1    1    1    1    2
    1    1    1    1    1    1    1    1    2    1    1    1    1    1    1
    1    2    1    1    1    1    1    1    2    1    1    1    1    1    2
    1    1    1    1    2    1    1    1    2    1    1    2    1    3    3
    2    2    2    2    2    2    2    1    1    1    1    1    1    1    1
    2    1    1    1    1    1    1    1    1    1    1    1    1    1    1
    1    1    1    1    1    1    1    1    1    1    1    1    1    1    1
    1    1    1    1    1    1    1    1    1    1    1    1    1    2    1
    1    1    1    1    1    1    1    1    2    1    1    1    1    1    1
    1    1    2    1    1    1    1    1    1    1    2    1    1    1    1
    1    1    2    1    1    1    1    1    2    1    1    1    1    3    1
    1    2    2    3    2    2    2    2    1    1    1    1    1    2    1
    1    1    1    1    1    1    2    1    1    1    1    1    1    1    1
    1    1    1    1    1    1    1    1    1    1    1    1    1    1    1
    1    1    1    1    1    1    1    1    1    1    1    1    1    1    1
    1    1    1    1    1    1    1    1    1    1    1    1    1    1    1
    1    1    1    1    1    1    1    1    1    1    2    1    1    1    1
    1    1    1    1    1    2    1    1    1    1    1    1    1    1    2
    1    1    1    1    1    1    1    3    1    1    1    1    1    2    1
    1    1    2    1    2    2    1    1    2    1    1    1    1    2    1
    1    1    1    1    1    2    1    1    1    1    1    1    1    1    2
    1    1    1    1    1    1    1    1    1    1    1    1    1    1    1
    1    1    1    1    1    1    1    1    1    1    1    1    1    1    1
    1    1    1    1    1    1    1    1    1    1    1    1    1    1    1
    1    1    1    1    1    1    1    1    1    1    1    1    1    1    1
    1    1    1    1    1    1    1    1    1    1    1    1    1    1    1
    1    1    1    1    1    1    1    1    1    2    1    1    1    1    1
    1    2    1    1    1    1    2    1    1    2    2    2    1    2    1
    1    1    2    1    1    1    1    1    2    1    1    1    1    1    1
    1    2    1    1    1    1    1    1    1    1    1    1    1    1    1
    1    1    1    1    1    1    1    1    1    1    1    1    1    1    1
    1    1    1    1    1    1    1    1    1    1    1    1    1    1    1
    1    1    1    1    1    1    1    1    1    1    1    1    1    1    1
    1    1    1    1    1    1    1    1    1    1    1    1    1    1    1
    1    1    1    1    1    1    1    1    1    1    1    2    1    1    1
    1    1    1    1    2    1    1    1    1    1    2    1    1    1    2
    1    2    2    2    1    1    2    1    1    1    1    2    1    1    1
    1    1    1    2    1    1    1    1    1    1    1    1    2    1    1
    1    1    1    1    1    1    1    1    1    1    1    1    1    1    1
    1    1    1    1    1    1    1    1    1    1    1    1    1    1    1
    1    1    1    1    1    1    1    1    1    1    1    1    1    1    1
    1    1    1    1    1    1    1    1    1    1    1    1    1    1    1
    1    1    1    1    1    1    1    1    1    1    1    1    1    2    1
    1    1    1    1    1    1    1    2    1    1    1    1    1    1    2
    1    1    1    1    2    1    1    2    2    2    1    2    1    1    1
    2    1    1    1    1    1    2    1    1    1    1    1    1    1    2
    1    1    1    1    1    1    1    1    1    1    1    1    1    1    1
    1    1    1    1    1    1    1    1    1    1    1    1    1    1    1
    1    1    1    1    1    1    1    1    1    1    1    1    1    1    1
    1    1    1    1    1    1    1    1    1    1    1    1    1    1    1
    1    1    1    1    1    1    1    1    1    1    1    1    1    1    1
    1    1    1    1    1    1    1    1    1    2    1    1    1    1    1
    1    1    2    1    1    1    1    1    2    1    1    1    2    1    2
    2    2    1    1    2    1    1    1    1    2    1    1    1    1    1
    1    2    1    1    1    1    1    1    1    1    1    1    1    1    1
    1    1    1    1    1    1    1    1    1    1    1    1    1    1    1
    1    1    1    1    1    1    1    1    1    1    1    1    1    1    1
    1    1    1    1    1    1    1    1    1    1    1    1    1    1    1
    1    1    1    1    1    1    1    1    1    1    1    1    1    1    1
    1    1    1    1    1    1    1    1    1    1    1    2    1    1    1
    1    1    1    1    1    2    1    1    1    1    1    1    2    1    1
    1    1    2    1    1    2    2    1    2    1    1    1    2    1    1
    1    1    1    3    1    1    1    1    1    1    1    2    1    1    1
    1    1    1    1    1    2    1    1    1    1    1    1    1    1    1
    2    1    1    1    1    1    1    1    1    1    1    1    1    1    1
    1    1    1    1    1    1    1    1    1    1    1    1    1    1    1
    1    1    1    1    1    1    1    1    1    1    1    1    1    1    1
    1    1    1    1    1    1    1    1    1    1    1    1    1    1    1
    1    1    1    1    2    1    1    1    1    1    1    1    2    1    1
    1    1    1    2    2    2    2    3    2    2    1    1    3    1    1
    1    1    2    1    1    1    1    1    2    1    1    1    1    1    1
    2    1    1    1    1    1    1    1    2    1    1    1    1    1    1
    1    1    2    1    1    1    1    1    1    1    1    1    2    1    1
    1    1    1    1    1    1    1    1    1    1    1    1    1    1    1
    1    1    1    1    1    1    1    1    1    1    1    1    1    1    1
    1    1    1    1    1    1    1    1    1    1    2    1    1    1    1
    1    1    1    1    2    2    2    2    2    2    2    3    3    1    2
    1    1    2    1    1    1    2    1    1    1    1    2    1    1    1
    1    1    2    1    1    1    1    1    1    2    1    1    1    1    1
    1    1    2    1    1    1    1    1    1    1    1    2    1    1    1
    1    1    1    1    1    1    2    1    1    1    1    1    1    1    1
    1    1    1    1    1    1    1    1    1    1    1    1    1    2    2
    2    2    2    2    2    2    2    3    2    2    1    2    1    1    2
    1    1    1    2    1    1    1    1    2    1    1    1    1    1    2
    1    1    1    1    1    1    2    1    1    1    1    1    1    1    2
    1    1    1    1    1    1    1    1    3    2    2    2    2    2    2
    2    2    2    2    2    1    2    1    1    2    1    1    1    2    1
    1    1    1    2    1    1    1    1    1    3    2    2    2    2    2
    2    2    2    1    2    1    1    3    2    2    2
   -8   -3   -5    1    1   -0.000000   -0.000000
   -8   -3   -5    2    1    0.000000   -0.000000
   -8   -3   -5    1    2   -0.000000   -0.000000
   -8   -3   -5    2    2   -0.000000    0.000000
   -8   -3   -4    1    1    0.000000   -0.000000
   -8   -3   -4    2    1    0.000000   -0.000000
   -8   -3   -4    1    2   -0.000000   -0.000000
   -8   -3   -4    2    2   -0.000000   -0.000000
   -8   -3   -3    1    1   -0.000000    0.000000
   -8   -3   -3    2    1   -0.000000    0.000000
   -8   -3   -3    1    2   -0.000000   -0.000000
   -8   -3   -3    2    2   -0.000000   -0.000000
   -8   -3   -2    1    1   -0.000000    0.000000
   -8   -3   -2    2    1    0.000000   -0.000000
   -8   -3   -2    1    2    0.000000    0.000000
   -8   -3   -2    2    2   -0.000000    0.000000
   -8   -2   -5    1    1   -0.000000    0.000000
   -8   -2   -5    2    1   -0.000000    0.000000
   -8   -2   -5    1    2   -0.000000    0.000000
   -8   -2   -5    2    2   -0.000000    0.000000
   -8   -2   -4    1    1    0.000000   -0.000000
   -8   -2   -4    2    1   -0.000000    0.000000
   -8   -2   -4    1    2   -0.000000   -0.000000
   -8   -2   -4    2    2    0.000000    0.000000
   -8   -2   -3    1    1   -0.000000   -0.000000
   -8   -2   -3    2    1   -0.000000    0.000000
   -8   -2   -3    1    2   -0.000000   -0.000000
   -8   -2   -3    2    2   -0.000000   -0.000000
   -8   -1   -5    1    1   -0.000000    0.000000
   -8   -1   -5    2    1   -0.000000    0.000000
   -8   -1   -5    1    2   -0.000000   -0.000000
   -8   -1   -5    2    2   -0.000000    0.000000
   -8   -1   -4    1    1    0.000000   -0.000000
   -8   -1   -4    2    1    0.000000   -0.000000
   -8   -1   -4    1    2   -0.000000   -0.000000
   -8   -1   -4    2    2   -0.000000   -0.000000
   -8    0   -5    1    1   -0.000000    0.000000
   -8    0   -5    2    1    0.000000   -0.000000
   -8    0   -5    1    2   -0.000000   -0.000000
   -8    0   -5    2    2   -0.000000    0.000000
   -7   -4   -5    1    1    0.000000   -0.000000
   -7   -4   -5    2    1   -0.000000    0.000000
   -7   -4   -5    1    2    0.000000    0.000000
   -7   -4   -5    2    2    0.000000   -0.000000
   -7   -4   -4    1    1   -0.000000   -0.000000
   -7   -4   -4    2    1   -0.000000    0.000000
   -7   -4   -4    1    2   -0.000000   -0.000000
   -7   -4   -4    2    2   -0.000000   -0.000000
   -7   -4   -3    1    1   -0.000000    0.000000
   -7   -4   -3    2    1   -0.000000    0.000000
   -7   -4   -3    1    2    0.000000    0.000000
   -7   -4   -3    2    2   -0.000000    0.000000
   -7   -4   -2    1    1   -0.000000    0.000000
   -7   -4   -2    2    1    0.000000   -0.000000
   -7   -4   -2    1    2    0.000000    0.000000
   -7   -4   -2    2    2   -0.000000    0.000000
   -7   -4   -1    1    1   -0.000000   -0.000000
   -7   -4   -1    2    1    0.000000   -0.000000
   -7   -4   -1    1    2   -0.000000   -0.000000
   -7   -4   -1    2    2    0.000000   -0.000000
   -7   -4    0    1    1    0.000000   -0.000000
   -7   -4    0    2    1    0.000000   -0.000000
   -7   -4    0    1    2   -0.000000   -0.000000
   -7   -4    0    2    2    0.000000   -0.000000
   -7   -4    1    1    1    0.000000    0.000000
   -7   -4    1    2    1   -0.000001    0.000000
   -7   -4    1    1    2   -0.000000   -0.000000
   -7   -4    1    2    2    0.000000    0.000000
   -7   -3   -5    1    1   -0.000000    0.000000
   -7   -3   -5    2    1    0.000000   -0.000000
   -7   -3   -5    1    2   -0.000000   -0.000000
   -7   -3   -5    2    2   -0.000000    0.000000
   -7   -3   -4    1    1    0.000000   -0.000000
   -7   -3   -4    2    1   -0.000000    0.000000
   -7   -3   -4    1    2   -0.000000   -0.000000
   -7   -3   -4    2    2    0.000000    0.000000
   -7   -3   -3    1    1   -0.000000   -0.000000
   -7   -3   -3    2    1   -0.000000    0.000000
   -7   -3   -3    1    2   -0.000000   -0.000000
   -7   -3   -3    2    2   -0.000000   -0.000000
   -7   -3   -2    1    1    0.000000   -0.000000
   -7   -3   -2    2    1    0.000000   -0.000000
   -7   -3   -2    1    2   -0.000000   -0.000000
   -7   -3   -2    2    2   -0.000000   -0.000000
   -7   -3   -1    1    1    0.000000   -0.000000
   -7   -3   -1    2    1   -0.000001    0.000000
   -7   -3   -1    1    2   -0.000001   -0.000000
   -7   -3   -1    2    2    0.000000    0.000000
   -7   -3    0    1    1    0.000000   -0.000000
   -7   -3    0    2    1    0.000000   -0.000000
   -7   -3    0    1    2   -0.000000   -0.000000
   -7   -3    0    2    2    0.000000   -0.000000
   -7   -2   -5    1    1   -0.000000   -0.000000
   -7   -2   -5    2    1   -0.000000    0.000000
   -7   -2   -5    1    2   -0.000000   -0.000000
   -7   -2   -5    2    2    0.000000    0.000000
   -7   -2   -4    1    1    0.000000   -0.000000
   -7   -2   -4    2    1    0.000000   -0.000000
   -7   -2   -4    1    2   -0.000000   -0.000000
   -7   -2   -4    2    2    0.000000   -0.000000
   -7   -2   -3    1    1   -0.000000   -0.000000
   -7   -2   -3    2    1   -0.000000    0.000000
   -7   -2   -3    1    2   -0.000000   -0.000000
   -7   -2   -3    2    2   -0.000000   -0.000000
   -7   -2   -2    1    1    0.000000   -0.000000
   -7   -2   -2    2    1    0.000000   -0.000000
   -7   -2   -2    1    2   -0.000000   -0.000000
   -7   -2   -2    2    2   -0.000000   -0.000000
   -7   -2   -1    1    1   -0.000000   -0.000000
   -7   -2   -1    2    1    0.000000   -0.000000
   -7   -2   -1    1    2   -0.000000   -0.000000
   -7   -2   -1    2    2    0.000000   -0.000000
   -7   -1   -5    1    1   -0.000000    0.000000
   -7   -1   -5    2    1   -0.000000    0.000000
   -7   -1   -5    1    2   -0.000000   -0.000000
   -7   -1   -5    2    2   -0.000000    0.000000
   -7   -1   -4    1    1    0.000000   -0.000000
   -7   -1   -4    2    1    0.000000   -0.000000
   -7   -1   -4    1    2   -0.000000   -0.000000
   -7   -1   -4    2    2   -0.000000    0.000000
   -7   -1   -3    1    1    0.000000    0.000000
   -7   -1   -3    2    1   -0.000000    0.000000
   -7   -1   -3    1    2   -0.000000   -0.000000
   -7   -1   -3    2    2   -0.000000   -0.000000
   -7   -1   -2    1    1   -0.000000   -0.000000
   -7   -1   -2    2    1    0.000000   -0.000000
   -7   -1   -2    1    2    0.000000    0.000000
   -7   -1   -2    2    2   -0.000000    0.000000
   -7    0   -5    1    1   -0.000000   -0.000000
   -7    0   -5    2    1   -0.000000    0.000000
   -7    0   -5    1    2   -0.000000   -0.000000
   -7    0   -5    2    2   -0.000000   -0.000000
   -7    0   -4    1    1    0.000000   -0.000000
   -7    0   -4    2    1   -0.000000    0.000000
   -7    0   -4    1    2   -0.000000   -0.000000
   -7    0   -4    2    2    0.000000   -0.000000
   -7    0   -3    1    1   -0.000000    0.000000
   -7    0   -3    2    1   -0.000000    0.000000
   -7    0   -3    1    2    0.000000    0.000000
   -7    0   -3    2    2   -0.000000    0.000000
   -7    1   -5    1    1   -0.000000    0.000000
   -7    1   -5    2    1    0.000000   -0.000000
   -7    1   -5    1    2   -0.000000   -0.000000
   -7    1   -5    2    2   -0.000000    0.000000
   -7    1   -4    1    1   -0.000000   -0.000000
   -7    1   -4    2    1   -0.000000    0.000000
   -7    1   -4    1    2   -0.000000   -0.000000
   -7    1   -4    2    2   -0.000000   -0.000000
   -7    2   -5    1    1    0.000000    0.000000
   -7    2   -5    2    1   -0.000000    0.000000
   -7    2   -5    1    2    0.000000    0.000000
   -7    2   -5    2    2    0.000000    0.000000
   -6   -5   -5    1    1   -0.000000    0.000000
   -6   -5   -5    2    1    0.000000   -0.000000
   -6   -5   -5    1    2    0.000000    0.000000
   -6   -5   -5    2    2    0.000000   -0.000000
   -6   -5   -4    1    1    0.000000    0.000000
   -6   -5   -4    2    1   -0.000000    0.000000
   -6   -5   -4    1    2   -0.000001   -0.000000
   -6   -5   -4    2    2    0.000000    0.000000
   -6   -5   -3    1    1    0.000000    0.000000
   -6   -5   -3    2    1   -0.000000    0.000000
   -6   -5   -3    1    2    0.000000    0.000000
   -6   -5   -3    2    2    0.000000   -0.000000
   -6   -5   -2    1    1    0.000000    0.000000
   -6   -5   -2    2    1    0.000000   -0.000000
   -6   -5   -2    1    2   -0.000000   -0.000000
   -6   -5   -2    2    2    0.000000   -0.000000
   -6   -5   -1    1    1   -0.000000    0.000000
   -6   -5   -1    2    1   -0.000000    0.000000
   -6   -5   -1    1    2   -0.000000   -0.000000
   -6   -5   -1    2    2   -0.000000    0.000000
   -6   -5    0    1    1    0.000001   -0.000000
   -6   -5    0    2    1    0.000000   -0.000000
   -6   -5    0    1    2   -0.000001   -0.000000
   -6   -5    0    2    2    0.000001   -0.000000
   -6   -5    1    1    1   -0.000000   -0.000000
   -6   -5    1    2    1    0.000000   -0.000000
   -6   -5    1    1    2    0.000001    0.000000
   -6   -5    1    2    2   -0.000000   -0.000000
   -6   -5    2    1    1    0.000000   -0.000000
   -6   -5    2    2    1   -0.000000    0.000000
   -6   -5    2    1    2    0.000000    0.000000
   -6   -5    2    2    2    0.000000    0.000000
   -6   -5    3    1    1    0.000000    0.000000
   -6   -5    3    2    1   -0.000000    0.000000
   -6   -5    3    1    2   -0.000000   -0.000000
   -6   -5    3    2    2   -0.000000    0.000000
   -6   -5    4    1    1   -0.000000   -0.000000
   -6   -5    4    2    1    0.000000   -0.000000
   -6   -5    4    1    2    0.000000    0.000000
   -6   -5    4    2    2   -0.000000    0.000000
   -6   -4   -5    1    1   -0.000000    0.000000
   -6   -4   -5    2    1    0.000000   -0.000000
   -6   -4   -5    1    2    0.000000    0.000000
   -6   -4   -5    2    2   -0.000000    0.000000
   -6   -4   -4    1    1   -0.000000    0.000000
   -6   -4   -4    2    1   -0.000000    0.000000
   -6   -4   -4    1    2   -0.000000   -0.000000
   -6   -4   -4    2    2   -0.000000    0.000000
   -6   -4   -3    1    1    0.000000    0.000000
   -6   -4   -3    2    1    0.000000   -0.000000
   -6   -4   -3    1    2    0.000000    0.000000
   -6   -4   -3    2    2    0.000000    0.000000
   -6   -4   -2    1    1   -0.000000   -0.000000
   -6   -4   -2    2    1    0.000000   -0.000000
   -6   -4   -2    1    2    0.000000    0.000000
   -6   -4   -2    2    2    0.000000   -0.000000
   -6   -4   -1    1    1   -0.000000    0.000000
   -6   -4   -1    2    1    0.000000   -0.000000
   -6   -4   -1    1    2    0.000002    0.000000
   -6   -4   -1    2    2   -0.000000    0.000000
   -6   -4    0    1    1   -0.000003    0.000000
   -6   -4    0    2    1    0.000001   -0.000000
   -6   -4    0    1    2    0.000001    0.000000
   -6   -4    0    2    2   -0.000002   -0.000000
   -6   -4    1    1    1    0.000000   -0.000000
   -6   -4    1    2    1   -0.000000    0.000000
   -6   -4    1    1    2   -0.000000   -0.000000
   -6   -4    1    2    2    0.000000   -0.000000
   -6   -4    2    1    1    0.000000    0.000000
   -6   -4    2    2    1   -0.000000    0.000000
   -6   -4    2    1    2   -0.000000   -0.000000
   -6   -4    2    2    2    0.000000    0.000000
   -6   -4    3    1    1    0.000000   -0.000000
   -6   -4    3    2    1   -0.000000    0.000000
   -6   -4    3    1    2   -0.000000   -0.000000
   -6   -4    3    2    2   -0.000000   -0.000000
   -6   -3   -5    1    1   -0.000000   -0.000000
   -6   -3   -5    2    1    0.000000   -0.000000
   -6   -3   -5    1    2    0.000000    0.000000
   -6   -3   -5    2    2   -0.000000   -0.000000
   -6   -3   -4    1    1   -0.000000   -0.000000
   -6   -3   -4    2    1    0.000000   -0.000000
   -6   -3   -4    1    2   -0.000000   -0.000000
   -6   -3   -4    2    2    0.000000   -0.000000
   -6   -3   -3    1    1   -0.000000    0.000000
   -6   -3   -3    2    1   -0.000000    0.000000
   -6   -3   -3    1    2   -0.000000   -0.000000
   -6   -3   -3    2    2    0.000000    0.000000
   -6   -3   -2    1    1    0.000000    0.000000
   -6   -3   -2    2    1    0.000000   -0.000000
   -6   -3   -2    1    2    0.000000    0.000000
   -6   -3   -2    2    2    0.000000   -0.000000
   -6   -3   -1    1    1    0.000000   -0.000000
   -6   -3   -1    2    1    0.000000   -0.000000
   -6   -3   -1    1    2   -0.000000   -0.000000
   -6   -3   -1    2    2    0.000000   -0.000000
   -6   -3    0    1    1    0.000003   -0.000000
   -6   -3    0    2    1   -0.000001    0.000000
   -6   -3    0    1    2   -0.000000   -0.000000
   -6   -3    0    2    2    0.000003   -0.000000
   -6   -3    1    1    1    0.000000   -0.000000
   -6   -3    1    2    1   -0.000000    0.000000
   -6   -3    1    1    2   -0.000000   -0.000000
   -6   -3    1    2    2    0.000000   -0.000000
   -6   -3    2    1    1    0.000000   -0.000000
   -6   -3    2    2    1   -0.000000    0.000000
   -6   -3    2    1    2    0.000000    0.000000
   -6   -3    2    2    2    0.000000   -0.000000
   -6   -2   -5    1    1   -0.000000   -0.000000
   -6   -2   -5    2    1   -0.000000    0.000000
   -6   -2   -5    1    2    0.000000    0.000000
   -6   -2   -5    2    2   -0.000000    0.000000
   -6   -2   -4    1    1    0.000000   -0.000000
   -6   -2   -4    2    1    0.000000   -0.000000
   -6   -2   -4    1    2   -0.000000   -0.000000
   -6   -2   -4    2    2    0.000000    0.000000
   -6   -2   -3    1    1   -0.000000    0.000000
   -6   -2   -3    2    1    0.000000   -0.000000
   -6   -2   -3    1    2    0.000000    0.000000
   -6   -2   -3    2    2   -0.000000    0.000000
   -6   -2   -2    1    1   -0.000000    0.000000
   -6   -2   -2    2    1   -0.000000    0.000000
   -6   -2   -2    1    2    0.000000    0.000000
   -6   -2   -2    2    2   -0.000000    0.000000
   -6   -2   -1    1    1    0.000000    0.000000
   -6   -2   -1    2    1    0.000000   -0.000000
   -6   -2   -1    1    2   -0.000000   -0.000000
   -6   -2   -1    2    2    0.000000    0.000000
   -6   -2    0    1    1   -0.000003   -0.000000
   -6   -2    0    2    1    0.000001   -0.000000
   -6   -2    0    1    2    0.000001    0.000000
   -6   -2    0    2    2   -0.000002   -0.000000
   -6   -2    1    1    1   -0.000000    0.000000
   -6   -2    1    2    1    0.000000   -0.000000
   -6   -2    1    1    2    0.000001    0.000000
   -6   -2    1    2    2   -0.000000    0.000000
   -6   -1   -5    1    1   -0.000000   -0.000000
   -6   -1   -5    2    1   -0.000000    0.000000
   -6   -1   -5    1    2   -0.000000   -0.000000
   -6   -1   -5    2    2   -0.000000   -0.000000
   -6   -1   -4    1    1   -0.000000   -0.000000
   -6   -1   -4    2    1    0.000000   -0.000000
   -6   -1   -4    1    2    0.000000    0.000000
   -6   -1   -4    2    2   -0.000000   -0.000000
   -6   -1   -3    1    1   -0.000000    0.000000
   -6   -1   -3    2    1    0.000000   -0.000000
   -6   -1   -3    1    2    0.000000    0.000000
   -6   -1   -3    2    2   -0.000000   -0.000000
   -6   -1   -2    1    1    0.000000   -0.000000
   -6   -1   -2    2    1    0.000000   -0.000000
   -6   -1   -2    1    2    0.000000    0.000000
   -6   -1   -2    2    2    0.000000    0.000000
   -6   -1   -1    1    1   -0.000000   -0.000000
   -6   -1   -1    2    1    0.000000   -0.000000
   -6   -1   -1    1    2    0.000002    0.000000
   -6   -1   -1    2    2   -0.000000    0.000000
   -6   -1    0    1    1    0.000001    0.000000
   -6   -1    0    2    1    0.000000   -0.000000
   -6   -1    0    1    2   -0.000001   -0.000000
   -6   -1    0    2    2    0.000001    0.000000
   -6    0   -5    1    1   -0.000000    0.000000
   -6    0   -5    2    1   -0.000000    0.000000
   -6    0   -5    1    2   -0.000000   -0.000000
   -6    0   -5    2    2   -0.000000    0.000000
   -6    0   -4    1    1    0.000000   -0.000000
   -6    0   -4    2    1    0.000000   -0.000000
   -6    0   -4    1    2   -0.000000   -0.000000
   -6    0   -4    2    2    0.000000    0.000000
   -6    0   -3    1    1   -0.000000   -0.000000
   -6    0   -3    2    1   -0.000000    0.000000
   -6    0   -3    1    2   -0.000000   -0.000000
   -6    0   -3    2    2    0.000000   -0.000000
   -6    0   -2    1    1   -0.000000    0.000000
   -6    0   -2    2    1    0.000000   -0.000000
   -6    0   -2    1    2    0.000000    0.000000
   -6    0   -2    2    2    0.000000    0.000000
   -6    0   -1    1    1   -0.000000   -0.000000
   -6    0   -1    2    1   -0.000000    0.000000
   -6    0   -1    1    2   -0.000000   -0.000000
   -6    0   -1    2    2   -0.000000   -0.000000
   -6    1   -5    1    1   -0.000000    0.000000
   -6    1   -5    2    1   -0.000000    0.000000
   -6    1   -5    1    2    0.000000    0.000000
   -6    1   -5    2    2   -0.000000    0.000000
   -6    1   -4    1    1    0.000000    0.000000
   -6    1   -4    2    1    0.000000   -0.000000
   -6    1   -4    1    2   -0.000000   -0.000000
   -6    1   -4    2    2   -0.000000    0.000000
   -6    1   -3    1    1    0.000000   -0.000000
   -6    1   -3    2    1    0.000000   -0.000000
   -6    1   -3    1    2    0.000000    0.000000
   -6    1   -3    2    2    0.000000   -0.000000
   -6    1   -2    1    1    0.000000    0.000000
   -6    1   -2    2    1    0.000000   -0.000000
   -6    1   -2    1    2   -0.000000   -0.000000
   -6    1   -2    2    2    0.000000    0.000000
   -6    2   -5    1    1   -0.000000    0.000000
   -6    2   -5    2    1    0.000000   -0.000000
   -6    2   -5    1    2    0.000000    0.000000
   -6    2   -5    2    2   -0.000000   -0.000000
   -6    2   -4    1    1    0.000000   -0.000000
   -6    2   -4    2    1   -0.000000    0.000000
   -6    2   -4    1    2   -0.000000   -0.000000
   -6    2   -4    2    2   -0.000000   -0.000000
   -6    2   -3    1    1    0.000000    0.000000
   -6    2   -3    2    1   -0.000000    0.000000
   -6    2   -3    1    2    0.000000    0.000000
   -6    2   -3    2    2    0.000000   -0.000000
   -6    3   -5    1    1   -0.000000    0.000000
   -6    3   -5    2    1    0.000000   -0.000000
   -6    3   -5    1    2    0.000000    0.000000
   -6    3   -5    2    2   -0.000000   -0.000000
   -6    3   -4    1    1    0.000000    0.000000
   -6    3   -4    2    1   -0.000000    0.000000
   -6    3   -4    1    2   -0.000001   -0.000000
   -6    3   -4    2    2    0.000000    0.000000
   -6    4   -5    1    1   -0.000000   -0.000000
   -6    4   -5    2    1    0.000000   -0.000000
   -6    4   -5    1    2    0.000000    0.000000
   -6    4   -5    2    2    0.000000   -0.000000
   -5   -6   -4    1    1   -0.000000    0.000000
   -5   -6   -4    2    1    0.000000   -0.000000
   -5   -6   -4    1    2    0.000000    0.000000
   -5   -6   -4    2    2   -0.000000   -0.000000
   -5   -6   -3    1    1    0.000000   -0.000000
   -5   -6   -3    2    1   -0.000000    0.000000
   -5   -6   -3    1    2   -0.000000   -0.000000
   -5   -6   -3    2    2   -0.000000   -0.000000
   -5   -6   -2    1    1    0.000000    0.000000
   -5   -6   -2    2    1    0.000000   -0.000000
   -5   -6   -2    1    2   -0.000000   -0.000000
   -5   -6   -2    2    2    0.000000   -0.000000
   -5   -6   -1    1    1   -0.000000    0.000000
   -5   -6   -1    2    1    0.000001   -0.000000
   -5   -6   -1    1    2    0.000000    0.000000
   -5   -6   -1    2    2   -0.000000    0.000000
   -5   -6    0    1    1    0.000001    0.000000
   -5   -6    0    2    1   -0.000001    0.000000
   -5   -6    0    1    2    0.000000    0.000000
   -5   -6    0    2    2    0.000001    0.000000
   -5   -6    1    1    1   -0.000000   -0.000000
   -5   -6    1    2    1   -0.000000    0.000000
   -5   -6    1    1    2   -0.000000   -0.000000
   -5   -6    1    2    2   -0.000000   -0.000000
   -5   -6    2    1    1    0.000000   -0.000000
   -5   -6    2    2    1   -0.000000    0.000000
   -5   -6    2    1    2    0.000000    0.000000
   -5   -6    2    2    2    0.000000    0.000000
   -5   -6    3    1    1    0.000000   -0.000000
   -5   -6    3    2    1    0.000000   -0.000000
   -5   -6    3    1    2   -0.000000   -0.000000
   -5   -6    3    2    2    0.000000    0.000000
   -5   -6    4    1    1    0.000000   -0.000000
   -5   -6    4    2    1   -0.000001    0.000000
   -5   -6    4    1    2   -0.000000   -0.000000
   -5   -6    4    2    2    0.000000   -0.000000
   -5   -6    5    1    1   -0.000000   -0.000000
   -5   -6    5    2    1    0.000000   -0.000000
   -5   -6    5    1    2    0.000000    0.000000
   -5   -6    5    2    2    0.000000    0.000000
   -5   -5   -5    1    1    0.000000    0.000000
   -5   -5   -5    2    1   -0.000000    0.000000
   -5   -5   -5    1    2   -0.000000   -0.000000
   -5   -5   -5    2    2   -0.000000   -0.000000
   -5   -5   -4    1    1   -0.000000    0.000000
   -5   -5   -4    2    1   -0.000000    0.000000
   -5   -5   -4    1    2    0.000000    0.000000
   -5   -5   -4    2    2   -0.000000    0.000000
   -5   -5   -3    1    1    0.000000    0.000000
   -5   -5   -3    2    1   -0.000000    0.000000
   -5   -5   -3    1    2   -0.000000   -0.000000
   -5   -5   -3    2    2    0.000000    0.000000
   -5   -5   -2    1    1   -0.000000   -0.000000
   -5   -5   -2    2    1   -0.000000    0.000000
   -5   -5   -2    1    2    0.000000    0.000000
   -5   -5   -2    2    2   -0.000000   -0.000000
   -5   -5   -1    1    1    0.000001   -0.000000
   -5   -5   -1    2    1    0.000000   -0.000000
   -5   -5   -1    1    2    0.000001    0.000000
   -5   -5   -1    2    2    0.000001   -0.000000
   -5   -5    0    1    1   -0.000000   -0.000000
   -5   -5    0    2    1   -0.000000    0.000000
   -5   -5    0    1    2   -0.000000   -0.000000
   -5   -5    0    2    2   -0.000000   -0.000000
   -5   -5    1    1    1    0.000001    0.000000
   -5   -5    1    2    1    0.000001   -0.000000
   -5   -5    1    1    2    0.000000    0.000000
   -5   -5    1    2    2    0.000001    0.000000
   -5   -5    2    1    1   -0.000000    0.000000
   -5   -5    2    2    1    0.000000   -0.000000
   -5   -5    2    1    2   -0.000000   -0.000000
   -5   -5    2    2    2   -0.000000    0.000000
   -5   -5    3    1    1    0.000000   -0.000000
   -5   -5    3    2    1   -0.000000    0.000000
   -5   -5    3    1    2   -0.000000   -0.000000
   -5   -5    3    2    2    0.000000    0.000000
   -5   -5    4    1    1   -0.000000    0.000000
   -5   -5    4    2    1    0.000000   -0.000000
   -5   -5    4    1    2   -0.000000   -0.000000
   -5   -5    4    2    2   -0.000000   -0.000000
   -5   -5    5    1    1    0.000000    0.000000
   -5   -5    5    2    1   -0.000000    0.000000
   -5   -5    5    1    2   -0.000000   -0.000000
   -5   -5    5    2    2   -0.000000   -0.000000
   -5   -4   -5    1    1    0.000000   -0.000000
   -5   -4   -5    2    1   -0.000000    0.000000
   -5   -4   -5    1    2   -0.000000   -0.000000
   -5   -4   -5    2    2    0.000000   -0.000000
   -5   -4   -4    1    1   -0.000000   -0.000000
   -5   -4   -4    2    1    0.000000   -0.000000
   -5   -4   -4    1    2   -0.000000   -0.000000
   -5   -4   -4    2    2   -0.000000   -0.000000
   -5   -4   -3    1    1   -0.000000   -0.000000
   -5   -4   -3    2    1   -0.000000    0.000000
   -5   -4   -3    1    2    0.000000    0.000000
   -5   -4   -3    2    2   -0.000000    0.000000
   -5   -4   -2    1    1    0.000000    0.000000
   -5   -4   -2    2    1    0.000000   -0.000000
   -5   -4   -2    1    2    0.000000    0.000000
   -5   -4   -2    2    2    0.000000    0.000000
   -5   -4   -1    1    1   -0.000001   -0.000000
   -5   -4   -1    2    1   -0.000000    0.000000
   -5   -4   -1    1    2    0.000003    0.000000
   -5   -4   -1    2    2   -0.000001   -0.000000
   -5   -4    0    1    1   -0.000005    0.000000
   -5   -4    0    2    1    0.000003   -0.000000
   -5   -4    0    1    2   -0.000000   -0.000000
   -5   -4    0    2    2   -0.000006   -0.000000
   -5   -4    1    1    1    0.000000   -0.000000
   -5   -4    1    2    1    0.000002   -0.000000
   -5   -4    1    1    2    0.000000    0.000000
   -5   -4    1    2    2    0.000000   -0.000000
   -5   -4    2    1    1    0.000000    0.000000
   -5   -4    2    2    1   -0.000000    0.000000
   -5   -4    2    1    2    0.000000    0.000000
   -5   -4    2    2    2    0.000000    0.000000
   -5   -4    3    1    1   -0.000000   -0.000000
   -5   -4    3    2    1    0.000000   -0.000000
   -5   -4    3    1    2   -0.000000   -0.000000
   -5   -4    3    2    2   -0.000000    0.000000
   -5   -4    4    1    1   -0.000000   -0.000000
   -5   -4    4    2    1    0.000000   -0.000000
   -5   -4    4    1    2   -0.000000   -0.000000
   -5   -4    4    2    2   -0.000000   -0.000000
   -5   -4    5    1    1   -0.000000    0.000000
   -5   -4    5    2    1    0.000000   -0.000000
   -5   -4    5    1    2    0.000000    0.000000
   -5   -4    5    2    2    0.000000    0.000000
   -5   -3   -5    1    1   -0.000000   -0.000000
   -5   -3   -5    2    1   -0.000000    0.000000
   -5   -3   -5    1    2    0.000000    0.000000
   -5   -3   -5    2    2   -0.000000   -0.000000
   -5   -3   -4    1    1   -0.000000    0.000000
   -5   -3   -4    2    1    0.000000   -0.000000
   -5   -3   -4    1    2    0.000000    0.000000
   -5   -3   -4    2    2   -0.000000    0.000000
   -5   -3   -3    1    1   -0.000000    0.000000
   -5   -3   -3    2    1   -0.000000    0.000000
   -5   -3   -3    1    2   -0.000000   -0.000000
   -5   -3   -3    2    2   -0.000000    0.000000
   -5   -3   -2    1    1    0.000000    0.000000
   -5   -3   -2    2    1    0.000000   -0.000000
   -5   -3   -2    1    2   -0.000000   -0.000000
   -5   -3   -2    2    2    0.000000   -0.000000
   -5   -3   -1    1    1   -0.000000    0.000000
   -5   -3   -1    2    1    0.000000   -0.000000
   -5   -3   -1    1    2    0.000002    0.000000
   -5   -3   -1    2    2    0.000000    0.000000
   -5   -3    0    1    1    0.000004    0.000000
   -5   -3    0    2    1   -0.000002    0.000000
   -5   -3    0    1    2   -0.000001   -0.000000
   -5   -3    0    2    2    0.000005   -0.000000
   -5   -3    1    1    1    0.000001    0.000000
   -5   -3    1    2    1   -0.000003    0.000000
   -5   -3    1    1    2    0.000000    0.000000
   -5   -3    1    2    2    0.000001    0.000000
   -5   -3    2    1    1    0.000000   -0.000000
   -5   -3    2    2    1   -0.000000    0.000000
   -5   -3    2    1    2    0.000000    0.000000
   -5   -3    2    2    2   -0.000000   -0.000000
   -5   -3    3    1    1    0.000000    0.000000
   -5   -3    3    2    1   -0.000000    0.000000
   -5   -3    3    1    2   -0.000000   -0.000000
   -5   -3    3    2    2    0.000000    0.000000
   -5   -3    4    1    1    0.000000   -0.000000
   -5   -3    4    2    1   -0.000001    0.000000
   -5   -3    4    1    2   -0.000000   -0.000000
   -5   -3    4    2    2    0.000000   -0.000000
   -5   -2   -5    1    1    0.000000    0.000000
   -5   -2   -5    2    1   -0.000000    0.000000
   -5   -2   -5    1    2   -0.000000   -0.000000
   -5   -2   -5    2    2    0.000000    0.000000
   -5   -2   -4    1    1    0.000000   -0.000000
   -5   -2   -4    2    1   -0.000000    0.000000
   -5   -2   -4    1    2   -0.000000   -0.000000
   -5   -2   -4    2    2    0.000000   -0.000000
   -5   -2   -3    1    1   -0.000000   -0.000000
   -5   -2   -3    2    1   -0.000000    0.000000
   -5   -2   -3    1    2    0.000000    0.000000
   -5   -2   -3    2    2    0.000000   -0.000000
   -5   -2   -2    1    1   -0.000000   -0.000000
   -5   -2   -2    2    1    0.000000   -0.000000
   -5   -2   -2    1    2    0.000000    0.000000
   -5   -2   -2    2    2   -0.000000   -0.000000
   -5   -2   -1    1    1    0.000001   -0.000000
   -5   -2   -1    2    1    0.000000   -0.000000
   -5   -2   -1    1    2   -0.000001   -0.000000
   -5   -2   -1    2    2    0.000001    0.000000
   -5   -2    0    1    1    0.000004   -0.000000
   -5   -2    0    2    1   -0.000002    0.000000
   -5   -2    0    1    2   -0.000001   -0.000000
   -5   -2    0    2    2    0.000005   -0.000000
   -5   -2    1    1    1    0.000000   -0.000000
   -5   -2    1    2    1    0.000002   -0.000000
   -5   -2    1    1    2    0.000000    0.000000
   -5   -2    1    2    2   -0.000000    0.000000
   -5   -2    2    1    1   -0.000000   -0.000000
   -5   -2    2    2    1    0.000000    0.000000
   -5   -2    2    1    2   -0.000000   -0.000000
   -5   -2    2    2    2   -0.000000    0.000000
   -5   -2    3    1    1    0.000000   -0.000000
   -5   -2    3    2    1    0.000000   -0.000000
   -5   -2    3    1    2   -0.000000   -0.000000
   -5   -2    3    2    2    0.000000    0.000000
   -5   -1   -5    1    1   -0.000000    0.000000
   -5   -1   -5    2    1   -0.000000    0.000000
   -5   -1   -5    1    2   -0.000000   -0.000000
   -5   -1   -5    2    2   -0.000000    0.000000
   -5   -1   -4    1    1    0.000000    0.000000
   -5   -1   -4    2    1    0.000000   -0.000000
   -5   -1   -4    1    2    0.000000    0.000000
   -5   -1   -4    2    2    0.000000    0.000000
   -5   -1   -3    1    1   -0.000000    0.000000
   -5   -1   -3    2    1   -0.000000    0.000000
   -5   -1   -3    1    2   -0.000000   -0.000000
   -5   -1   -3    2    2   -0.000000   -0.000000
   -5   -1   -2    1    1   -0.000000   -0.000000
   -5   -1   -2    2    1    0.000000   -0.000000
   -5   -1   -2    1    2    0.000000    0.000000
   -5   -1   -2    2    2   -0.000000   -0.000000
   -5   -1   -1    1    1    0.000000    0.000000
   -5   -1   -1    2    1    0.000000   -0.000000
   -5   -1   -1    1    2    0.000002    0.000000
   -5   -1   -1    2    2   -0.000000    0.000000
   -5   -1    0    1    1   -0.000005   -0.000000
   -5   -1    0    2    1    0.000003   -0.000000
   -5   -1    0    1    2   -0.000000   -0.000000
   -5   -1    0    2    2   -0.000006   -0.000000
   -5   -1    1    1    1    0.000001   -0.000000
   -5   -1    1    2    1    0.000001   -0.000000
   -5   -1    1    1    2    0.000000    0.000000
   -5   -1    1    2    2    0.000001   -0.000000
   -5   -1    2    1    1    0.000000   -0.000000
   -5   -1    2    2    1   -0.000000    0.000000
   -5   -1    2    1    2    0.000000    0.000000
   -5   -1    2    2    2    0.000000   -0.000000
   -5    0   -5    1    1    0.000000   -0.000000
   -5    0   -5    2    1    0.000001   -0.000000
   -5    0   -5    1    2   -0.000000   -0.000000
   -5    0   -5    2    2    0.000000   -0.000000
   -5    0   -4    1    1    0.000000   -0.000000
   -5    0   -4    2    1    0.000000   -0.000000
   -5    0   -4    1    2    0.000000    0.000000
   -5    0   -4    2    2    0.000000   -0.000000
   -5    0   -3    1    1    0.000000    0.000000
   -5    0   -3    2    1   -0.000000    0.000000
   -5    0   -3    1    2    0.000000    0.000000
   -5    0   -3    2    2    0.000000   -0.000000
   -5    0   -2    1    1    0.000000    0.000000
   -5    0   -2    2    1    0.000000   -0.000000
   -5    0   -2    1    2   -0.000000   -0.000000
   -5    0   -2    2    2    0.000000    0.000000
   -5    0   -1    1    1   -0.000001    0.000000
   -5    0   -1    2    1   -0.000000    0.000000
   -5    0   -1    1    2    0.000003    0.000000
   -5    0   -1    2    2   -0.000001    0.000000
   -5    0    0    1    1   -0.000000   -0.000000
   -5    0    0    2    1   -0.000000    0.000000
   -5    0    0    1    2   -0.000000   -0.000000
   -5    0    0    2    2   -0.000000   -0.000000
   -5    0    1    1    1   -0.000000    0.000000
   -5    0    1    2    1   -0.000000    0.000000
   -5    0    1    1    2   -0.000000   -0.000000
   -5    0    1    2    2   -0.000000    0.000000
   -5    1   -5    1    1   -0.000000   -0.000000
   -5    1   -5    2    1   -0.000000    0.000000
   -5    1   -5    1    2   -0.000000   -0.000000
   -5    1   -5    2    2    0.000000    0.000000
   -5    1   -4    1    1    0.000000   -0.000000
   -5    1   -4    2    1   -0.000000    0.000000
   -5    1   -4    1    2   -0.000000   -0.000000
   -5    1   -4    2    2    0.000000   -0.000000
   -5    1   -3    1    1    0.000000    0.000000
   -5    1   -3    2    1   -0.000000    0.000000
   -5    1   -3    1    2   -0.000000   -0.000000
   -5    1   -3    2    2   -0.000000    0.000000
   -5    1   -2    1    1    0.000000    0.000000
   -5    1   -2    2    1    0.000000   -0.000000
   -5    1   -2    1    2    0.000000    0.000000
   -5    1   -2    2    2    0.000000   -0.000000
   -5    1   -1    1    1    0.000001   -0.000000
   -5    1   -1    2    1    0.000000   -0.000000
   -5    1   -1    1    2    0.000001    0.000000
   -5    1   -1    2    2    0.000001   -0.000000
   -5    1    0    1    1    0.000001   -0.000000
   -5    1    0    2    1   -0.000001    0.000000
   -5    1    0    1    2    0.000000    0.000000
   -5    1    0    2    2    0.000001   -0.000000
   -5    2   -5    1    1    0.000000    0.000000
   -5    2   -5    2    1   -0.000000    0.000000
   -5    2   -5    1    2   -0.000000   -0.000000
   -5    2   -5    2    2    0.000000    0.000000
   -5    2   -4    1    1   -0.000000   -0.000000
   -5    2   -4    2    1    0.000000   -0.000000
   -5    2   -4    1    2    0.000000    0.000000
   -5    2   -4    2    2   -0.000000    0.000000
   -5    2   -3    1    1   -0.000000    0.000000
   -5    2   -3    2    1   -0.000000    0.000000
   -5    2   -3    1    2    0.000000    0.000000
   -5    2   -3    2    2   -0.000000    0.000000
   -5    2   -2    1    1   -0.000000    0.000000
   -5    2   -2    2    1   -0.000000    0.000000
   -5    2   -2    1    2    0.000000   -0.000000
   -5    2   -2    2    2   -0.000000    0.000000
   -5    2   -1    1    1   -0.000000   -0.000000
   -5    2   -1    2    1    0.000001   -0.000000
   -5    2   -1    1    2    0.000000    0.000000
   -5    2   -1    2    2   -0.000000   -0.000000
   -5    3   -5    1    1   -0.000000    0.000000
   -5    3   -5    2    1   -0.000000    0.000000
   -5    3   -5    1    2    0.000000    0.000000
   -5    3   -5    2    2   -0.000000    0.000000
   -5    3   -4    1    1   -0.000000    0.000000
   -5    3   -4    2    1    0.000000   -0.000000
   -5    3   -4    1    2   -0.000000   -0.000000
   -5    3   -4    2    2    0.000000    0.000000
   -5    3   -3    1    1    0.000000   -0.000000
   -5    3   -3    2    1   -0.000000    0.000000
   -5    3   -3    1    2   -0.000000   -0.000000
   -5    3   -3    2    2    0.000000   -0.000000
   -5    3   -2    1    1    0.000000    0.000000
   -5    3   -2    2    1    0.000000   -0.000000
   -5    3   -2    1    2   -0.000000   -0.000000
   -5    3   -2    2    2    0.000000    0.000000
   -5    4   -5    1    1   -0.000000    0.000000
   -5    4   -5    2    1   -0.000000    0.000000
   -5    4   -5    1    2   -0.000000   -0.000000
   -5    4   -5    2    2    0.000000    0.000000
   -5    4   -4    1    1   -0.000000    0.000000
   -5    4   -4    2    1   -0.000000    0.000000
   -5    4   -4    1    2    0.000000    0.000000
   -5    4   -4    2    2   -0.000000   -0.000000
   -5    4   -3    1    1    0.000000    0.000000
   -5    4   -3    2    1   -0.000000    0.000000
   -5    4   -3    1    2   -0.000000   -0.000000
   -5    4   -3    2    2   -0.000000    0.000000
   -5    5   -5    1    1    0.000000    0.000000
   -5    5   -5    2    1   -0.000000    0.000000
   -5    5   -5    1    2   -0.000000   -0.000000
   -5    5   -5    2    2   -0.000000    0.000000
   -5    5   -4    1    1   -0.000000    0.000000
   -5    5   -4    2    1    0.000000   -0.000000
   -5    5   -4    1    2    0.000000    0.000000
   -5    5   -4    2    2   -0.000000   -0.000000
   -4   -7   -1    1    1    0.000000   -0.000000
   -4   -7   -1    2    1   -0.000000    0.000000
   -4   -7   -1    1    2   -0.000001   -0.000000
   -4   -7   -1    2    2    0.000000   -0.000000
   -4   -7    0    1    1    0.000000    0.000000
   -4   -7    0    2    1   -0.000000    0.000000
   -4   -7    0    1    2    0.000000    0.000000
   -4   -7    0    2    2    0.000000    0.000000
   -4   -7    1    1    1   -0.000000    0.000000
   -4   -7    1    2    1   -0.000000    0.000000
   -4   -7    1    1    2    0.000000    0.000000
   -4   -7    1    2    2    0.000000    0.000000
   -4   -7    2    1    1   -0.000000   -0.000000
   -4   -7    2    2    1    0.000000   -0.000000
   -4   -7    2    1    2    0.000000    0.000000
   -4   -7    2    2    2   -0.000000   -0.000000
   -4   -7    3    1    1   -0.000000   -0.000000
   -4   -7    3    2    1    0.000000   -0.000000
   -4   -7    3    1    2   -0.000000   -0.000000
   -4   -7    3    2    2   -0.000000   -0.000000
   -4   -7    4    1    1   -0.000000    0.000000
   -4   -7    4    2    1   -0.000000    0.000000
   -4   -7    4    1    2   -0.000000   -0.000000
   -4   -7    4    2    2   -0.000000    0.000000
   -4   -7    5    1    1    0.000000    0.000000
   -4   -7    5    2    1    0.000000   -0.000000
   -4   -7    5    1    2   -0.000000   -0.000000
   -4   -7    5    2    2    0.000000    0.000000
   -4   -6   -3    1    1    0.000000    0.000000
   -4   -6   -3    2    1   -0.000000    0.000000
   -4   -6   -3    1    2   -0.000000   -0.000000
   -4   -6   -3    2    2   -0.000000    0.000000
   -4   -6   -2    1    1    0.000000    0.000000
   -4   -6   -2    2    1   -0.000000    0.000000
   -4   -6   -2    1    2   -0.000000   -0.000000
   -4   -6   -2    2    2    0.000000    0.000000
   -4   -6   -1    1    1    0.000000   -0.000000
   -4   -6   -1    2    1   -0.000000    0.000000
   -4   -6   -1    1    2   -0.000000   -0.000000
   -4   -6   -1    2    2    0.000000   -0.000000
   -4   -6    0    1    1   -0.000003   -0.000000
   -4   -6    0    2    1    0.000001   -0.000000
   -4   -6    0    1    2    0.000001    0.000000
   -4   -6    0    2    2   -0.000002   -0.000000
   -4   -6    1    1    1   -0.000000   -0.000000
   -4   -6    1    2    1    0.000002   -0.000000
   -4   -6    1    1    2    0.000000    0.000000
   -4   -6    1    2    2   -0.000000    0.000000
   -4   -6    2    1    1   -0.000000   -0.000000
   -4   -6    2    2    1    0.000000   -0.000000
   -4   -6    2    1    2    0.000000    0.000000
   -4   -6    2    2    2    0.000000   -0.000000
   -4   -6    3    1    1    0.000000    0.000000
   -4   -6    3    2    1    0.000000   -0.000000
   -4   -6    3    1    2    0.000000    0.000000
   -4   -6    3    2    2    0.000000   -0.000000
   -4   -6    4    1    1    0.000000    0.000000
   -4   -6    4    2    1   -0.000000    0.000000
   -4   -6    4    1    2   -0.000000   -0.000000
   -4   -6    4    2    2   -0.000000   -0.000000
   -4   -6    5    1    1   -0.000000   -0.000000
   -4   -6    5    2    1    0.000000   -0.000000
   -4   -6    5    1    2    0.000000    0.000000
   -4   -6    5    2    2   -0.000000   -0.000000
   -4   -5   -5    1    1   -0.000000   -0.000000
   -4   -5   -5    2    1    0.000000   -0.000000
   -4   -5   -5    1    2    0.000000    0.000000
   -4   -5   -5    2    2    0.000000   -0.000000
   -4   -5   -4    1    1   -0.000000    0.000000
   -4   -5   -4    2    1   -0.000000    0.000000
   -4   -5   -4    1    2    0.000000    0.000000
   -4   -5   -4    2    2   -0.000000   -0.000000
   -4   -5   -3    1    1   -0.000000   -0.000000
   -4   -5   -3    2    1   -0.000000    0.000000
   -4   -5   -3    1    2    0.000000    0.000000
   -4   -5   -3    2    2   -0.000000   -0.000000
   -4   -5   -2    1    1    0.000000   -0.000000
   -4   -5   -2    2    1    0.000000   -0.000000
   -4   -5   -2    1    2   -0.000000   -0.000000
   -4   -5   -2    2    2   -0.000000   -0.000000
   -4   -5   -1    1    1    0.000000    0.000000
   -4   -5   -1    2    1    0.000000   -0.000000
   -4   -5   -1    1    2    0.000002    0.000000
   -4   -5   -1    2    2   -0.000000    0.000000
   -4   -5    0    1    1   -0.000005    0.000000
   -4   -5    0    2    1   -0.000000    0.000000
   -4   -5    0    1    2    0.000003    0.000000
   -4   -5    0    2    2   -0.000006    0.000000
   -4   -5    1    1    1   -0.000001   -0.000000
   -4   -5    1    2    1    0.000003   -0.000000
   -4   -5    1    1    2   -0.000000   -0.000000
   -4   -5    1    2    2   -0.000001   -0.000000
   -4   -5    2    1    1    0.000000   -0.000000
   -4   -5    2    2    1    0.000000   -0.000000
   -4   -5    2    1    2    0.000000    0.000000
   -4   -5    2    2    2    0.000000   -0.000000
   -4   -5    3    1    1   -0.000000   -0.000000
   -4   -5    3    2    1    0.000000   -0.000000
   -4   -5    3    1    2   -0.000000   -0.000000
   -4   -5    3    2    2   -0.000000   -0.000000
   -4   -5    4    1    1   -0.000000   -0.000000
   -4   -5    4    2    1   -0.000000    0.000000
   -4   -5    4    1    2    0.000000    0.000000
   -4   -5    4    2    2    0.000000   -0.000000
   -4   -5    5    1    1   -0.000000    0.000000
   -4   -5    5    2    1   -0.000000    0.000000
   -4   -5    5    1    2   -0.000000   -0.000000
   -4   -5    5    2    2    0.000000    0.000000
   -4   -4   -5    1    1   -0.000000    0.000000
   -4   -4   -5    2    1   -0.000000    0.000000
   -4   -4   -5    1    2   -0.000000   -0.000000
   -4   -4   -5    2    2    0.000000   -0.000000
   -4   -4   -4    1    1   -0.000000    0.000000
   -4   -4   -4    2    1   -0.000000    0.000000
   -4   -4   -4    1    2   -0.000000   -0.000000
   -4   -4   -4    2    2   -0.000000    0.000000
   -4   -4   -3    1    1    0.000000    0.000000
   -4   -4   -3    2    1    0.000000   -0.000000
   -4   -4   -3    1    2   -0.000000   -0.000000
   -4   -4   -3    2    2    0.000000    0.000000
   -4   -4   -2    1    1    0.000000    0.000000
   -4   -4   -2    2    1    0.000000   -0.000000
   -4   -4   -2    1    2    0.000000    0.000000
   -4   -4   -2    2    2    0.000000    0.000000
   -4   -4   -1    1    1   -0.000001    0.000000
   -4   -4   -1    2    1   -0.000000    0.000000
   -4   -4   -1    1    2    0.000004    0.000000
   -4   -4   -1    2    2    0.000000   -0.000000
   -4   -4    0    1    1   -0.000002   -0.000000
   -4   -4    0    2    1   -0.000003    0.000000
   -4   -4    0    1    2   -0.000003   -0.000000
   -4   -4    0    2    2   -0.000006    0.000000
   -4   -4    1    1    1   -0.000000   -0.000000
   -4   -4    1    2    1    0.000004   -0.000000
   -4   -4    1    1    2   -0.000000   -0.000000
   -4   -4    1    2    2   -0.000000    0.000000
   -4   -4    2    1    1    0.000000   -0.000000
   -4   -4    2    2    1    0.000000   -0.000000
   -4   -4    2    1    2    0.000000    0.000000
   -4   -4    2    2    2    0.000000   -0.000000
   -4   -4    3    1    1    0.000000   -0.000000
   -4   -4    3    2    1   -0.000000    0.000000
   -4   -4    3    1    2    0.000000    0.000000
   -4   -4    3    2    2    0.000000   -0.000000
   -4   -4    4    1    1   -0.000000   -0.000000
   -4   -4    4    2    1   -0.000000    0.000000
   -4   -4    4    1    2   -0.000000   -0.000000
   -4   -4    4    2    2   -0.000000   -0.000000
   -4   -4    5    1    1    0.000000    0.000000
   -4   -4    5    2    1   -0.000000    0.000000
   -4   -4    5    1    2   -0.000000   -0.000000
   -4   -4    5    2    2    0.000000    0.000000
   -4   -3   -5    1    1    0.000000    0.000000
   -4   -3   -5    2    1   -0.000000    0.000000
   -4   -3   -5    1    2   -0.000000   -0.000000
   -4   -3   -5    2    2    0.000000   -0.000000
   -4   -3   -4    1    1    0.000000   -0.000000
   -4   -3   -4    2    1   -0.000000    0.000000
   -4   -3   -4    1    2    0.000000    0.000000
   -4   -3   -4    2    2   -0.000000   -0.000000
   -4   -3   -3    1    1   -0.000000   -0.000000
   -4   -3   -3    2    1    0.000000   -0.000000
   -4   -3   -3    1    2   -0.000000   -0.000000
   -4   -3   -3    2    2    0.000000   -0.000000
   -4   -3   -2    1    1    0.000001   -0.000000
   -4   -3   -2    2    1   -0.000000    0.000000
   -4   -3   -2    1    2   -0.000001   -0.000000
   -4   -3   -2    2    2    0.000000   -0.000000
   -4   -3   -1    1    1   -0.000002   -0.000000
   -4   -3   -1    2    1    0.000000   -0.000000
   -4   -3   -1    1    2    0.000016    0.000000
   -4   -3   -1    2    2   -0.000003   -0.000000
   -4   -3    0    1    1   -0.000049    0.000000
   -4   -3    0    2    1    0.000020   -0.000000
   -4   -3    0    1    2    0.000019    0.000000
   -4   -3    0    2    2   -0.000033    0.000000
   -4   -3    1    1    1   -0.000001    0.000000
   -4   -3    1    2    1   -0.000003    0.000000
   -4   -3    1    1    2    0.000000    0.000000
   -4   -3    1    2    2   -0.000001    0.000000
   -4   -3    2    1    1    0.000000    0.000000
   -4   -3    2    2    1   -0.000000    0.000000
   -4   -3    2    1    2    0.000000    0.000000
   -4   -3    2    2    2    0.000000    0.000000
   -4   -3    3    1    1    0.000000    0.000000
   -4   -3    3    2    1   -0.000000    0.000000
   -4   -3    3    1    2    0.000000    0.000000
   -4   -3    3    2    2    0.000000    0.000000
   -4   -3    4    1    1   -0.000000    0.000000
   -4   -3    4    2    1   -0.000000    0.000000
   -4   -3    4    1    2    0.000000    0.000000
   -4   -3    4    2    2   -0.000000    0.000000
   -4   -3    5    1    1   -0.000000    0.000000
   -4   -3    5    2    1    0.000000   -0.000000
   -4   -3    5    1    2    0.000000    0.000000
   -4   -3    5    2    2   -0.000000   -0.000000
   -4   -2   -5    1    1   -0.000000   -0.000000
   -4   -2   -5    2    1    0.000000   -0.000000
   -4   -2   -5    1    2   -0.000000   -0.000000
   -4   -2   -5    2    2    0.000000   -0.000000
   -4   -2   -4    1    1    0.000000   -0.000000
   -4   -2   -4    2    1   -0.000001    0.000000
   -4   -2   -4    1    2   -0.000000   -0.000000
   -4   -2   -4    2    2    0.000000    0.000000
   -4   -2   -3    1    1    0.000001    0.000000
   -4   -2   -3    2    1   -0.000001    0.000000
   -4   -2   -3    1    2   -0.000000   -0.000000
   -4   -2   -3    2    2    0.000000    0.000000
   -4   -2   -2    1    1   -0.000000    0.000000
   -4   -2   -2    2    1   -0.000000    0.000000
   -4   -2   -2    1    2   -0.000001   -0.000000
   -4   -2   -2    2    2    0.000000    0.000000
   -4   -2   -1    1    1    0.000003    0.000000
   -4   -2   -1    2    1    0.000000   -0.000000
   -4   -2   -1    1    2    0.000009    0.000000
   -4   -2   -1    2    2    0.000003    0.000000
   -4   -2    0    1    1    0.000078   -0.000000
   -4   -2    0    2    1   -0.000032    0.000000
   -4   -2    0    1    2   -0.000012   -0.000000
   -4   -2    0    2    2    0.000068   -0.000000
   -4   -2    1    1    1   -0.000001   -0.000000
   -4   -2    1    2    1   -0.000003    0.000000
   -4   -2    1    1    2    0.000000    0.000000
   -4   -2    1    2    2   -0.000001   -0.000000
   -4   -2    2    1    1    0.000000    0.000000
   -4   -2    2    2    1    0.000000   -0.000000
   -4   -2    2    1    2    0.000000    0.000000
   -4   -2    2    2    2    0.000000    0.000000
   -4   -2    3    1    1   -0.000000    0.000000
   -4   -2    3    2    1    0.000000   -0.000000
   -4   -2    3    1    2   -0.000000   -0.000000
   -4   -2    3    2    2   -0.000000    0.000000
   -4   -2    4    1    1   -0.000000   -0.000000
   -4   -2    4    2    1   -0.000000    0.000000
   -4   -2    4    1    2   -0.000000   -0.000000
   -4   -2    4    2    2   -0.000000   -0.000000
   -4   -2    5    1    1    0.000000   -0.000000
   -4   -2    5    2    1    0.000000   -0.000000
   -4   -2    5    1    2   -0.000000   -0.000000
   -4   -2    5    2    2    0.000000   -0.000000
   -4   -1   -5    1    1    0.000000    0.000000
   -4   -1   -5    2    1   -0.000000    0.000000
   -4   -1   -5    1    2    0.000000    0.000000
   -4   -1   -5    2    2    0.000000    0.000000
   -4   -1   -4    1    1    0.000000   -0.000000
   -4   -1   -4    2    1    0.000000   -0.000000
   -4   -1   -4    1    2    0.000000    0.000000
   -4   -1   -4    2    2    0.000000   -0.000000
   -4   -1   -3    1    1   -0.000000   -0.000000
   -4   -1   -3    2    1    0.000000   -0.000000
   -4   -1   -3    1    2   -0.000000   -0.000000
   -4   -1   -3    2    2   -0.000000   -0.000000
   -4   -1   -2    1    1    0.000000    0.000000
   -4   -1   -2    2    1    0.000001   -0.000000
   -4   -1   -2    1    2   -0.000000   -0.000000
   -4   -1   -2    2    2   -0.000000   -0.000000
   -4   -1   -1    1    1    0.000003    0.000000
   -4   -1   -1    2    1    0.000000   -0.000000
   -4   -1   -1    1    2    0.000009    0.000000
   -4   -1   -1    2    2    0.000003    0.000000
   -4   -1    0    1    1   -0.000049   -0.000000
   -4   -1    0    2    1    0.000020   -0.000000
   -4   -1    0    1    2    0.000019    0.000000
   -4   -1    0    2    2   -0.000033   -0.000000
   -4   -1    1    1    1   -0.000001    0.000000
   -4   -1    1    2    1    0.000004   -0.000000
   -4   -1    1    1    2   -0.000000   -0.000000
   -4   -1    1    2    2    0.000000    0.000000
   -4   -1    2    1    1    0.000000   -0.000000
   -4   -1    2    2    1    0.000000   -0.000000
   -4   -1    2    1    2    0.000000    0.000000
   -4   -1    2    2    2    0.000000   -0.000000
   -4   -1    3    1    1    0.000000   -0.000000
   -4   -1    3    2    1    0.000000   -0.000000
   -4   -1    3    1    2    0.000000    0.000000
   -4   -1    3    2    2    0.000000   -0.000000
   -4   -1    4    1    1   -0.000000    0.000000
   -4   -1    4    2    1   -0.000000    0.000000
   -4   -1    4    1    2   -0.000000   -0.000000
   -4   -1    4    2    2   -0.000000    0.000000
   -4    0   -5    1    1    0.000000    0.000000
   -4    0   -5    2    1    0.000000   -0.000000
   -4    0   -5    1    2    0.000000    0.000000
   -4    0   -5    2    2    0.000000    0.000000
   -4    0   -4    1    1   -0.000001    0.000000
   -4    0   -4    2    1   -0.000000    0.000000
   -4    0   -4    1    2   -0.000000   -0.000000
   -4    0   -4    2    2   -0.000001    0.000000
   -4    0   -3    1    1   -0.000000   -0.000000
   -4    0   -3    2    1    0.000000   -0.000000
   -4    0   -3    1    2   -0.000000   -0.000000
   -4    0   -3    2    2   -0.000000   -0.000000
   -4    0   -2    1    1   -0.000000   -0.000000
   -4    0   -2    2    1   -0.000000    0.000000
   -4    0   -2    1    2   -0.000001   -0.000000
   -4    0   -2    2    2    0.000000   -0.000000
   -4    0   -1    1    1   -0.000002   -0.000000
   -4    0   -1    2    1    0.000000   -0.000000
   -4    0   -1    1    2    0.000016    0.000000
   -4    0   -1    2    2   -0.000002    0.000000
   -4    0    0    1    1   -0.000002   -0.000000
   -4    0    0    2    1   -0.000003    0.000000
   -4    0    0    1    2   -0.000003   -0.000000
   -4    0    0    2    2   -0.000006   -0.000000
   -4    0    1    1    1   -0.000001   -0.000000
   -4    0    1    2    1    0.000003   -0.000000
   -4    0    1    1    2   -0.000000   -0.000000
   -4    0    1    2    2   -0.000001   -0.000000
   -4    0    2    1    1   -0.000000    0.000000
   -4    0    2    2    1    0.000000   -0.000000
   -4    0    2    1    2    0.000000    0.000000
   -4    0    2    2    2    0.000000    0.000000
   -4    0    3    1    1   -0.000000   -0.000000
   -4    0    3    2    1    0.000000   -0.000000
   -4    0    3    1    2   -0.000000   -0.000000
   -4    0    3    2    2   -0.000000   -0.000000
   -4    1   -5    1    1    0.000000   -0.000000
   -4    1   -5    2    1    0.000000   -0.000000
   -4    1   -5    1    2    0.000000    0.000000
   -4    1   -5    2    2    0.000000   -0.000000
   -4    1   -4    1    1    0.000000    0.000000
   -4    1   -4    2    1    0.000000   -0.000000
   -4    1   -4    1    2    0.000000    0.000000
   -4    1   -4    2    2    0.000000    0.000000
   -4    1   -3    1    1    0.000001   -0.000000
   -4    1   -3    2    1   -0.000001    0.000000
   -4    1   -3    1    2   -0.000000   -0.000000
   -4    1   -3    2    2    0.000000   -0.000000
   -4    1   -2    1    1    0.000001    0.000000
   -4    1   -2    2    1   -0.000000    0.000000
   -4    1   -2    1    2   -0.000001   -0.000000
   -4    1   -2    2    2    0.000000    0.000000
   -4    1   -1    1    1   -0.000000    0.000000
   -4    1   -1    2    1   -0.000000    0.000000
   -4    1   -1    1    2    0.000004    0.000000
   -4    1   -1    2    2   -0.000000   -0.000000
   -4    1    0    1    1   -0.000005    0.000000
   -4    1    0    2    1   -0.000000    0.000000
   -4    1    0    1    2    0.000003    0.000000
   -4    1    0    2    2   -0.000006    0.000000
   -4    1    1    1    1   -0.000000   -0.000000
   -4    1    1    2    1    0.000002   -0.000000
   -4    1    1    1    2    0.000000    0.000000
   -4    1    1    2    2   -0.000000   -0.000000
   -4    1    2    1    1   -0.000000    0.000000
   -4    1    2    2    1    0.000000   -0.000000
   -4    1    2    1    2    0.000000    0.000000
   -4    1    2    2    2   -0.000000   -0.000000
   -4    2   -5    1    1    0.000000    0.000000
   -4    2   -5    2    1   -0.000000    0.000000
   -4    2   -5    1    2    0.000000    0.000000
   -4    2   -5    2    2   -0.000000    0.000000
   -4    2   -4    1    1    0.000000   -0.000000
   -4    2   -4    2    1   -0.000001    0.000000
   -4    2   -4    1    2   -0.000000   -0.000000
   -4    2   -4    2    2    0.000000   -0.000000
   -4    2   -3    1    1   -0.000000   -0.000000
   -4    2   -3    2    1    0.000000   -0.000000
   -4    2   -3    1    2   -0.000000   -0.000000
   -4    2   -3    2    2    0.000000   -0.000000
   -4    2   -2    1    1    0.000000    0.000000
   -4    2   -2    2    1    0.000000   -0.000000
   -4    2   -2    1    2    0.000000    0.000000
   -4    2   -2    2    2    0.000000    0.000000
   -4    2   -1    1    1    0.000000    0.000000
   -4    2   -1    2    1    0.000000   -0.000000
   -4    2   -1    1    2    0.000002    0.000000
   -4    2   -1    2    2    0.000000    0.000000
   -4    2    0    1    1   -0.000003   -0.000000
   -4    2    0    2    1    0.000001   -0.000000
   -4    2    0    1    2    0.000001    0.000000
   -4    2    0    2    2   -0.000002    0.000000
   -4    2    1    1    1   -0.000000    0.000000
   -4    2    1    2    1   -0.000000    0.000000
   -4    2    1    1    2    0.000000    0.000000
   -4    2    1    2    2    0.000000    0.000000
   -4    3   -5    1    1    0.000000   -0.000000
   -4    3   -5    2    1    0.000000   -0.000000
   -4    3   -5    1    2   -0.000000   -0.000000
   -4    3   -5    2    2    0.000000    0.000000
   -4    3   -4    1    1    0.000000   -0.000000
   -4    3   -4    2    1   -0.000000    0.000000
   -4    3   -4    1    2    0.000000    0.000000
   -4    3   -4    2    2    0.000000    0.000000
   -4    3   -3    1    1    0.000000    0.000000
   -4    3   -3    2    1    0.000000   -0.000000
   -4    3   -3    1    2   -0.000000   -0.000000
   -4    3   -3    2    2    0.000000    0.000000
   -4    3   -2    1    1    0.000000    0.000000
   -4    3   -2    2    1    0.000000   -0.000000
   -4    3   -2    1    2   -0.000000   -0.000000
   -4    3   -2    2    2    0.000000    0.000000
   -4    3   -1    1    1    0.000000    0.000000
   -4    3   -1    2    1   -0.000000    0.000000
   -4    3   -1    1    2   -0.000000   -0.000000
   -4    3   -1    2    2    0.000000    0.000000
   -4    3    0    1    1    0.000000    0.000000
   -4    3    0    2    1   -0.000000    0.000000
   -4    3    0    1    2    0.000000    0.000000
   -4    3    0    2    2    0.000000    0.000000
   -4    4   -5    1    1    0.000000    0.000000
   -4    4   -5    2    1   -0.000000    0.000000
   -4    4   -5    1    2   -0.000000   -0.000000
   -4    4   -5    2    2    0.000000    0.000000
   -4    4   -4    1    1   -0.000000    0.000000
   -4    4   -4    2    1   -0.000000    0.000000
   -4    4   -4    1    2   -0.000000   -0.000000
   -4    4   -4    2    2   -0.000000   -0.000000
   -4    4   -3    1    1   -0.000000    0.000000
   -4    4   -3    2    1   -0.000000    0.000000
   -4    4   -3    1    2    0.000000    0.000000
   -4    4   -3    2    2   -0.000000   -0.000000
   -4    4   -2    1    1    0.000000    0.000000
   -4    4   -2    2    1   -0.000000    0.000000
   -4    4   -2    1    2   -0.000000   -0.000000
   -4    4   -2    2    2    0.000000    0.000000
   -4    4   -1    1    1    0.000000   -0.000000
   -4    4   -1    2    1   -0.000000    0.000000
   -4    4   -1    1    2   -0.000001   -0.000000
   -4    4   -1    2    2    0.000000   -0.000000
   -4    5   -5    1    1    0.000000   -0.000000
   -4    5   -5    2    1   -0.000000    0.000000
   -4    5   -5    1    2   -0.000000   -0.000000
   -4    5   -5    2    2    0.000000   -0.000000
   -4    5   -4    1    1   -0.000000    0.000000
   -4    5   -4    2    1   -0.000000    0.000000
   -4    5   -4    1    2    0.000000    0.000000
   -4    5   -4    2    2   -0.000000    0.000000
   -4    5   -3    1    1    0.000000    0.000000
   -4    5   -3    2    1   -0.000000    0.000000
   -4    5   -3    1    2   -0.000000   -0.000000
   -4    5   -3    2    2   -0.000000    0.000000
   -4    6   -5    1    1   -0.000000   -0.000000
   -4    6   -5    2    1    0.000000   -0.000000
   -4    6   -5    1    2    0.000000    0.000000
   -4    6   -5    2    2    0.000000   -0.000000
   -3   -8    2    1    1   -0.000000   -0.000000
   -3   -8    2    2    1    0.000000   -0.000000
   -3   -8    2    1    2    0.000000    0.000000
   -3   -8    2    2    2   -0.000000   -0.000000
   -3   -8    3    1    1   -0.000000   -0.000000
   -3   -8    3    2    1   -0.000000    0.000000
   -3   -8    3    1    2   -0.000000   -0.000000
   -3   -8    3    2    2   -0.000000    0.000000
   -3   -8    4    1    1    0.000000    0.000000
   -3   -8    4    2    1   -0.000000    0.000000
   -3   -8    4    1    2    0.000000    0.000000
   -3   -8    4    2    2   -0.000000    0.000000
   -3   -8    5    1    1   -0.000000    0.000000
   -3   -8    5    2    1   -0.000000    0.000000
   -3   -8    5    1    2    0.000000    0.000000
   -3   -8    5    2    2   -0.000000   -0.000000
   -3   -7    0    1    1    0.000000   -0.000000
   -3   -7    0    2    1   -0.000000    0.000000
   -3   -7    0    1    2    0.000000    0.000000
   -3   -7    0    2    2    0.000000    0.000000
   -3   -7    1    1    1    0.000000   -0.000000
   -3   -7    1    2    1   -0.000001    0.000000
   -3   -7    1    1    2   -0.000001   -0.000000
   -3   -7    1    2    2    0.000000   -0.000000
   -3   -7    2    1    1    0.000000    0.000000
   -3   -7    2    2    1   -0.000000    0.000000
   -3   -7    2    1    2    0.000000    0.000000
   -3   -7    2    2    2   -0.000000    0.000000
   -3   -7    3    1    1    0.000000    0.000000
   -3   -7    3    2    1   -0.000000    0.000000
   -3   -7    3    1    2   -0.000000   -0.000000
   -3   -7    3    2    2   -0.000000    0.000000
   -3   -7    4    1    1    0.000000    0.000000
   -3   -7    4    2    1   -0.000000    0.000000
   -3   -7    4    1    2   -0.000000   -0.000000
   -3   -7    4    2    2    0.000000    0.000000
   -3   -7    5    1    1   -0.000000   -0.000000
   -3   -7    5    2    1   -0.000000    0.000000
   -3   -7    5    1    2    0.000000    0.000000
   -3   -7    5    2    2   -0.000000   -0.000000
   -3   -6   -2    1    1    0.000000   -0.000000
   -3   -6   -2    2    1    0.000000   -0.000000
   -3   -6   -2    1    2   -0.000000   -0.000000
   -3   -6   -2    2    2    0.000000    0.000000
   -3   -6   -1    1    1    0.000000    0.000000
   -3   -6   -1    2    1   -0.000000    0.000000
   -3   -6   -1    1    2   -0.000000   -0.000000
   -3   -6   -1    2    2    0.000000    0.000000
   -3   -6    0    1    1    0.000003    0.000000
   -3   -6    0    2    1   -0.000000    0.000000
   -3   -6    0    1    2   -0.000001   -0.000000
   -3   -6    0    2    2    0.000003    0.000000
   -3   -6    1    1    1    0.000000    0.000000
   -3   -6    1    2    1   -0.000000    0.000000
   -3   -6    1    1    2    0.000000    0.000000
   -3   -6    1    2    2    0.000000    0.000000
   -3   -6    2    1    1    0.000000    0.000000
   -3   -6    2    2    1    0.000000   -0.000000
   -3   -6    2    1    2    0.000000    0.000000
   -3   -6    2    2    2    0.000000    0.000000
   -3   -6    3    1    1   -0.000000    0.000000
   -3   -6    3    2    1   -0.000000    0.000000
   -3   -6    3    1    2   -0.000000   -0.000000
   -3   -6    3    2    2    0.000000    0.000000
   -3   -6    4    1    1    0.000000    0.000000
   -3   -6    4    2    1   -0.000000    0.000000
   -3   -6    4    1    2    0.000000    0.000000
   -3   -6    4    2    2   -0.000000    0.000000
   -3   -6    5    1    1   -0.000000   -0.000000
   -3   -6    5    2    1    0.000000   -0.000000
   -3   -6    5    1    2    0.000000    0.000000
   -3   -6    5    2    2   -0.000000   -0.000000
   -3   -5   -4    1    1    0.000000    0.000000
   -3   -5   -4    2    1   -0.000000    0.000000
   -3   -5   -4    1    2   -0.000001   -0.000000
   -3   -5   -4    2    2    0.000000   -0.000000
   -3   -5   -3    1    1    0.000000    0.000000
   -3   -5   -3    2    1   -0.000000    0.000000
   -3   -5   -3    1    2   -0.000000   -0.000000
   -3   -5   -3    2    2    0.000000    0.000000
   -3   -5   -2    1    1    0.000000    0.000000
   -3   -5   -2    2    1    0.000000   -0.000000
   -3   -5   -2    1    2   -0.000000   -0.000000
   -3   -5   -2    2    2    0.000000    0.000000
   -3   -5   -1    1    1    0.000001   -0.000000
   -3   -5   -1    2    1    0.000000   -0.000000
   -3   -5   -1    1    2   -0.000003   -0.000000
   -3   -5   -1    2    2    0.000001   -0.000000
   -3   -5    0    1    1    0.000004    0.000000
   -3   -5    0    2    1   -0.000001    0.000000
   -3   -5    0    1    2   -0.000002   -0.000000
   -3   -5    0    2    2    0.000005    0.000000
   -3   -5    1    1    1    0.000000   -0.000000
   -3   -5    1    2    1    0.000002   -0.000000
   -3   -5    1    1    2    0.000000    0.000000
   -3   -5    1    2    2   -0.000000    0.000000
   -3   -5    2    1    1    0.000000    0.000000
   -3   -5    2    2    1   -0.000000    0.000000
   -3   -5    2    1    2    0.000000    0.000000
   -3   -5    2    2    2    0.000000    0.000000
   -3   -5    3    1    1    0.000000   -0.000000
   -3   -5    3    2    1   -0.000000    0.000000
   -3   -5    3    1    2   -0.000000   -0.000000
   -3   -5    3    2    2   -0.000000    0.000000
   -3   -5    4    1    1   -0.000000    0.000000
   -3   -5    4    2    1    0.000000   -0.000000
   -3   -5    4    1    2    0.000000    0.000000
   -3   -5    4    2    2   -0.000000    0.000000
   -3   -5    5    1    1   -0.000000   -0.000000
   -3   -5    5    2    1    0.000000   -0.000000
   -3   -5    5    1    2   -0.000000   -0.000000
   -3   -5    5    2    2   -0.000000   -0.000000
   -3   -4   -5    1    1   -0.000000   -0.000000
   -3   -4   -5    2    1    0.000000   -0.000000
   -3   -4   -5    1    2    0.000000    0.000000
   -3   -4   -5    2    2   -0.000000   -0.000000
   -3   -4   -4    1    1   -0.000000   -0.000000
   -3   -4   -4    2    1    0.000000   -0.000000
   -3   -4   -4    1    2   -0.000000   -0.000000
   -3   -4   -4    2    2    0.000000   -0.000000
   -3   -4   -3    1    1    0.000000    0.000000
   -3   -4   -3    2    1    0.000000   -0.000000
   -3   -4   -3    1    2   -0.000000   -0.000000
   -3   -4   -3    2    2    0.000000   -0.000000
   -3   -4   -2    1    1    0.000000   -0.000000
   -3   -4   -2    2    1    0.000000   -0.000000
   -3   -4   -2    1    2   -0.000000   -0.000000
   -3   -4   -2    2    2    0.000000   -0.000000
   -3   -4   -1    1    1   -0.000001   -0.000000
   -3   -4   -1    2    1    0.000000   -0.000000
   -3   -4   -1    1    2   -0.000003   -0.000000
   -3   -4   -1    2    2   -0.000001   -0.000000
   -3   -4    0    1    1   -0.000049    0.000000
   -3   -4    0    2    1    0.000019   -0.000000
   -3   -4    0    1    2    0.000020    0.000000
   -3   -4    0    2    2   -0.000033   -0.000000
   -3   -4    1    1    1   -0.000002    0.000000
   -3   -4    1    2    1    0.000016   -0.000000
   -3   -4    1    1    2    0.000000    0.000000
   -3   -4    1    2    2   -0.000002   -0.000000
   -3   -4    2    1    1    0.000001    0.000000
   -3   -4    2    2    1   -0.000001    0.000000
   -3   -4    2    1    2   -0.000000   -0.000000
   -3   -4    2    2    2    0.000000    0.000000
   -3   -4    3    1    1   -0.000000   -0.000000
   -3   -4    3    2    1   -0.000000    0.000000
   -3   -4    3    1    2    0.000000    0.000000
   -3   -4    3    2    2    0.000000   -0.000000
   -3   -4    4    1    1    0.000000    0.000000
   -3   -4    4    2    1    0.000000   -0.000000
   -3   -4    4    1    2   -0.000000   -0.000000
   -3   -4    4    2    2    0.000000    0.000000
   -3   -4    5    1    1    0.000000   -0.000000
   -3   -4    5    2    1   -0.000000    0.000000
   -3   -4    5    1    2   -0.000000   -0.000000
   -3   -4    5    2    2    0.000000   -0.000000
   -3   -3   -5    1    1   -0.000000   -0.000000
   -3   -3   -5    2    1   -0.000000    0.000000
   -3   -3   -5    1    2    0.000000    0.000000
   -3   -3   -5    2    2   -0.000000   -0.000000
   -3   -3   -4    1    1    0.000000    0.000000
   -3   -3   -4    2    1   -0.000000    0.000000
   -3   -3   -4    1    2    0.000000    0.000000
   -3   -3   -4    2    2    0.000000    0.000000
   -3   -3   -3    1    1    0.000000    0.000000
   -3   -3   -3    2    1   -0.000000    0.000000
   -3   -3   -3    1    2    0.000000    0.000000
   -3   -3   -3    2    2    0.000000    0.000000
   -3   -3   -2    1    1   -0.000000    0.000000
   -3   -3   -2    2    1   -0.000000    0.000000
   -3   -3   -2    1    2   -0.000001   -0.000000
   -3   -3   -2    2    2    0.000000    0.000000
   -3   -3   -1    1    1   -0.000002    0.000000
   -3   -3   -1    2    1    0.000000   -0.000000
   -3   -3   -1    1    2    0.000043    0.000000
   -3   -3   -1    2    2   -0.000002    0.000000
   -3   -3    0    1    1   -0.000228    0.000000
   -3   -3    0    2    1    0.000056   -0.000000
   -3   -3    0    1    2    0.000056    0.000000
   -3   -3    0    2    2   -0.000154    0.000000
   -3   -3    1    1    1   -0.000002   -0.000000
   -3   -3    1    2    1    0.000043   -0.000000
   -3   -3    1    1    2    0.000000    0.000000
   -3   -3    1    2    2   -0.000002   -0.000000
   -3   -3    2    1    1    0.000000    0.000000
   -3   -3    2    2    1   -0.000001    0.000000
   -3   -3    2    1    2   -0.000000   -0.000000
   -3   -3    2    2    2   -0.000000   -0.000000
   -3   -3    3    1    1    0.000000    0.000000
   -3   -3    3    2    1    0.000000   -0.000000
   -3   -3    3    1    2   -0.000000   -0.000000
   -3   -3    3    2    2    0.000000    0.000000
   -3   -3    4    1    1    0.000000   -0.000000
   -3   -3    4    2    1    0.000000   -0.000000
   -3   -3    4    1    2   -0.000000   -0.000000
   -3   -3    4    2    2   -0.000000   -0.000000
   -3   -3    5    1    1   -0.000000    0.000000
   -3   -3    5    2    1    0.000000   -0.000000
   -3   -3    5    1    2   -0.000000   -0.000000
   -3   -3    5    2    2   -0.000000    0.000000
   -3   -2   -5    1    1    0.000000    0.000000
   -3   -2   -5    2    1    0.000000   -0.000000
   -3   -2   -5    1    2   -0.000000   -0.000000
   -3   -2   -5    2    2    0.000000    0.000000
   -3   -2   -4    1    1   -0.000000    0.000000
   -3   -2   -4    2    1    0.000000   -0.000000
   -3   -2   -4    1    2    0.000000    0.000000
   -3   -2   -4    2    2   -0.000000    0.000000
   -3   -2   -3    1    1    0.000000   -0.000000
   -3   -2   -3    2    1   -0.000000    0.000000
   -3   -2   -3    1    2   -0.000000   -0.000000
   -3   -2   -3    2    2    0.000000   -0.000000
   -3   -2   -2    1    1   -0.000001   -0.000000
   -3   -2   -2    2    1    0.000000   -0.000000
   -3   -2   -2    1    2   -0.000002   -0.000000
   -3   -2   -2    2    2   -0.000001   -0.000000
   -3   -2   -1    1    1    0.000003   -0.000000
   -3   -2   -1    2    1   -0.000000    0.000000
   -3   -2   -1    1    2    0.000010    0.000000
   -3   -2   -1    2    2    0.000000   -0.000000
   -3   -2    0    1    1    0.000089    0.000000
   -3   -2    0    2    1   -0.000016    0.000000
   -3   -2    0    1    2    0.000021    0.000000
   -3   -2    0    2    2    0.000140    0.000000
   -3   -2    1    1    1    0.000002    0.000000
   -3   -2    1    2    1   -0.000105    0.000000
   -3   -2    1    1    2    0.000001    0.000000
   -3   -2    1    2    2    0.000002    0.000000
   -3   -2    2    1    1   -0.000000   -0.000000
   -3   -2    2    2    1   -0.000001    0.000000
   -3   -2    2    1    2   -0.000000   -0.000000
   -3   -2    2    2    2    0.000000   -0.000000
   -3   -2    3    1    1   -0.000000   -0.000000
   -3   -2    3    2    1   -0.000000    0.000000
   -3   -2    3    1    2    0.000000    0.000000
   -3   -2    3    2    2    0.000000   -0.000000
   -3   -2    4    1    1   -0.000000    0.000000
   -3   -2    4    2    1    0.000000   -0.000000
   -3   -2    4    1    2    0.000000    0.000000
   -3   -2    4    2    2   -0.000000    0.000000
   -3   -2    5    1    1   -0.000000   -0.000000
   -3   -2    5    2    1    0.000000   -0.000000
   -3   -2    5    1    2    0.000000    0.000000
   -3   -2    5    2    2   -0.000000    0.000000
   -3   -1   -5    1    1   -0.000000   -0.000000
   -3   -1   -5    2    1    0.000000   -0.000000
   -3   -1   -5    1    2   -0.000000   -0.000000
   -3   -1   -5    2    2   -0.000001    0.000000
   -3   -1   -4    1    1   -0.000000    0.000000
   -3   -1   -4    2    1   -0.000000    0.000000
   -3   -1   -4    1    2    0.000000    0.000000
   -3   -1   -4    2    2    0.000000    0.000000
   -3   -1   -3    1    1   -0.000000    0.000000
   -3   -1   -3    2    1    0.000000   -0.000000
   -3   -1   -3    1    2   -0.000000   -0.000000
   -3   -1   -3    2    2   -0.000000    0.000000
   -3   -1   -2    1    1   -0.000000   -0.000000
   -3   -1   -2    2    1    0.000000   -0.000000
   -3   -1   -2    1    2   -0.000003   -0.000000
   -3   -1   -2    2    2   -0.000000   -0.000000
   -3   -1   -1    1    1    0.000009    0.000000
   -3   -1   -1    2    1    0.000000   -0.000000
   -3   -1   -1    1    2   -0.000078   -0.000000
   -3   -1   -1    2    2    0.000006   -0.000000
   -3   -1    0    1    1    0.000090    0.000000
   -3   -1    0    2    1   -0.000016    0.000000
   -3   -1    0    1    2    0.000021    0.000000
   -3   -1    0    2    2    0.000138    0.000000
   -3   -1    1    1    1   -0.000002   -0.000000
   -3   -1    1    2    1    0.000043   -0.000000
   -3   -1    1    1    2    0.000000    0.000000
   -3   -1    1    2    2   -0.000002   -0.000000
   -3   -1    2    1    1    0.000001    0.000000
   -3   -1    2    2    1   -0.000001    0.000000
   -3   -1    2    1    2   -0.000000   -0.000000
   -3   -1    2    2    2    0.000000   -0.000000
   -3   -1    3    1    1   -0.000000    0.000000
   -3   -1    3    2    1   -0.000000    0.000000
   -3   -1    3    1    2   -0.000000   -0.000000
   -3   -1    3    2    2   -0.000000    0.000000
   -3   -1    4    1    1   -0.000000   -0.000000
   -3   -1    4    2    1   -0.000000    0.000000
   -3   -1    4    1    2    0.000000    0.000000
   -3   -1    4    2    2    0.000000   -0.000000
   -3   -1    5    1    1   -0.000000   -0.000000
   -3   -1    5    2    1   -0.000000    0.000000
   -3   -1    5    1    2    0.000000    0.000000
   -3   -1    5    2    2   -0.000000   -0.000000
   -3    0   -5    1    1    0.000000   -0.000000
   -3    0   -5    2    1   -0.000000    0.000000
   -3    0   -5    1    2   -0.000000   -0.000000
   -3    0   -5    2    2   -0.000000   -0.000000
   -3    0   -4    1    1   -0.000000   -0.000000
   -3    0   -4    2    1   -0.000000    0.000000
   -3    0   -4    1    2   -0.000000   -0.000000
   -3    0   -4    2    2   -0.000000   -0.000000
   -3    0   -3    1    1    0.000001    0.000000
   -3    0   -3    2    1   -0.000000    0.000000
   -3    0   -3    1    2    0.000000    0.000000
[...]
    5    6   -2    2    1    0.000000   -0.000000
    5    6   -2    1    2   -0.000000   -0.000000
    5    6   -2    2    2    0.000000   -0.000000
    5    6   -1    1    1   -0.000000    0.000000
    5    6   -1    2    1   -0.000000    0.000000
    5    6   -1    1    2   -0.000000   -0.000000
    5    6   -1    2    2   -0.000000    0.000000
    5    6    0    1    1    0.000001   -0.000000
    5    6    0    2    1    0.000000   -0.000000
    5    6    0    1    2   -0.000001   -0.000000
    5    6    0    2    2    0.000001   -0.000000
    5    6    1    1    1   -0.000000   -0.000000
    5    6    1    2    1    0.000000   -0.000000
    5    6    1    1    2    0.000001    0.000000
    5    6    1    2    2   -0.000000   -0.000000
    5    6    2    1    1    0.000000   -0.000000
    5    6    2    2    1   -0.000000    0.000000
    5    6    2    1    2    0.000000    0.000000
    5    6    2    2    2    0.000000    0.000000
    5    6    3    1    1    0.000000    0.000000
    5    6    3    2    1   -0.000000    0.000000
    5    6    3    1    2   -0.000000   -0.000000
    5    6    3    2    2   -0.000000    0.000000
    5    6    4    1    1   -0.000000   -0.000000
    5    6    4    2    1    0.000000   -0.000000
    5    6    4    1    2    0.000000    0.000000
    5    6    4    2    2   -0.000000    0.000000
    6   -4    5    1    1   -0.000000    0.000000
    6   -4    5    2    1    0.000000   -0.000000
    6   -4    5    1    2    0.000000    0.000000
    6   -4    5    2    2    0.000000    0.000000
    6   -3    4    1    1    0.000000   -0.000000
    6   -3    4    2    1   -0.000001    0.000000
    6   -3    4    1    2   -0.000000   -0.000000
    6   -3    4    2    2    0.000000   -0.000000
    6   -3    5    1    1   -0.000000   -0.000000
    6   -3    5    2    1    0.000000   -0.000000
    6   -3    5    1    2    0.000000    0.000000
    6   -3    5    2    2   -0.000000    0.000000
    6   -2    3    1    1    0.000000   -0.000000
    6   -2    3    2    1    0.000000   -0.000000
    6   -2    3    1    2   -0.000000   -0.000000
    6   -2    3    2    2    0.000000    0.000000
    6   -2    4    1    1    0.000000    0.000000
    6   -2    4    2    1   -0.000000    0.000000
    6   -2    4    1    2   -0.000000   -0.000000
    6   -2    4    2    2   -0.000000    0.000000
    6   -2    5    1    1   -0.000000   -0.000000
    6   -2    5    2    1    0.000000   -0.000000
    6   -2    5    1    2    0.000000    0.000000
    6   -2    5    2    2   -0.000000    0.000000
    6   -1    2    1    1    0.000000   -0.000000
    6   -1    2    2    1   -0.000000    0.000000
    6   -1    2    1    2    0.000000    0.000000
    6   -1    2    2    2    0.000000   -0.000000
    6   -1    3    1    1    0.000000    0.000000
    6   -1    3    2    1    0.000000   -0.000000
    6   -1    3    1    2    0.000000    0.000000
    6   -1    3    2    2    0.000000    0.000000
    6   -1    4    1    1    0.000000   -0.000000
    6   -1    4    2    1   -0.000000    0.000000
    6   -1    4    1    2    0.000000    0.000000
    6   -1    4    2    2   -0.000000   -0.000000
    6   -1    5    1    1   -0.000000   -0.000000
    6   -1    5    2    1    0.000000   -0.000000
    6   -1    5    1    2   -0.000000   -0.000000
    6   -1    5    2    2   -0.000000   -0.000000
    6    0    1    1    1   -0.000000    0.000000
    6    0    1    2    1   -0.000000    0.000000
    6    0    1    1    2   -0.000000   -0.000000
    6    0    1    2    2   -0.000000    0.000000
    6    0    2    1    1   -0.000000   -0.000000
    6    0    2    2    1    0.000000   -0.000000
    6    0    2    1    2    0.000000    0.000000
    6    0    2    2    2    0.000000   -0.000000
    6    0    3    1    1   -0.000000    0.000000
    6    0    3    2    1   -0.000000    0.000000
    6    0    3    1    2   -0.000000   -0.000000
    6    0    3    2    2    0.000000    0.000000
    6    0    4    1    1    0.000000    0.000000
    6    0    4    2    1   -0.000000    0.000000
    6    0    4    1    2    0.000000    0.000000
    6    0    4    2    2    0.000000   -0.000000
    6    0    5    1    1   -0.000000   -0.000000
    6    0    5    2    1   -0.000000    0.000000
    6    0    5    1    2   -0.000000   -0.000000
    6    0    5    2    2   -0.000000   -0.000000
    6    1    0    1    1    0.000001   -0.000000
    6    1    0    2    1   -0.000001    0.000000
    6    1    0    1    2    0.000000    0.000000
    6    1    0    2    2    0.000001   -0.000000
    6    1    1    1    1   -0.000000    0.000000
    6    1    1    2    1    0.000002   -0.000000
    6    1    1    1    2    0.000000    0.000000
    6    1    1    2    2   -0.000000   -0.000000
    6    1    2    1    1    0.000000    0.000000
    6    1    2    2    1    0.000000   -0.000000
    6    1    2    1    2    0.000000    0.000000
    6    1    2    2    2    0.000000   -0.000000
    6    1    3    1    1   -0.000000   -0.000000
    6    1    3    2    1    0.000000   -0.000000
    6    1    3    1    2    0.000000    0.000000
    6    1    3    2    2   -0.000000    0.000000
    6    1    4    1    1   -0.000000    0.000000
    6    1    4    2    1    0.000000   -0.000000
    6    1    4    1    2    0.000000    0.000000
    6    1    4    2    2   -0.000000    0.000000
    6    1    5    1    1   -0.000000    0.000000
    6    1    5    2    1   -0.000000    0.000000
    6    1    5    1    2   -0.000000   -0.000000
    6    1    5    2    2   -0.000000    0.000000
    6    2   -1    1    1   -0.000000   -0.000000
    6    2   -1    2    1    0.000001   -0.000000
    6    2   -1    1    2    0.000000    0.000000
    6    2   -1    2    2   -0.000000   -0.000000
    6    2    0    1    1   -0.000003    0.000000
    6    2    0    2    1    0.000001   -0.000000
    6    2    0    1    2    0.000001    0.000000
    6    2    0    2    2   -0.000002    0.000000
    6    2    1    1    1    0.000000   -0.000000
    6    2    1    2    1   -0.000000    0.000000
    6    2    1    1    2    0.000000    0.000000
    6    2    1    2    2    0.000000   -0.000000
    6    2    2    1    1   -0.000000   -0.000000
    6    2    2    2    1    0.000000   -0.000000
    6    2    2    1    2   -0.000000   -0.000000
    6    2    2    2    2   -0.000000   -0.000000
    6    2    3    1    1   -0.000000   -0.000000
    6    2    3    2    1    0.000000   -0.000000
    6    2    3    1    2    0.000000    0.000000
    6    2    3    2    2   -0.000000   -0.000000
    6    2    4    1    1    0.000000    0.000000
    6    2    4    2    1   -0.000000    0.000000
    6    2    4    1    2    0.000000    0.000000
    6    2    4    2    2    0.000000   -0.000000
    6    2    5    1    1   -0.000000    0.000000
    6    2    5    2    1    0.000000   -0.000000
    6    2    5    1    2   -0.000000   -0.000000
    6    2    5    2    2   -0.000000   -0.000000
    6    3   -2    1    1    0.000000    0.000000
    6    3   -2    2    1    0.000000   -0.000000
    6    3   -2    1    2   -0.000000   -0.000000
    6    3   -2    2    2    0.000000    0.000000
    6    3   -1    1    1    0.000000    0.000000
    6    3   -1    2    1   -0.000000    0.000000
    6    3   -1    1    2   -0.000000   -0.000000
    6    3   -1    2    2    0.000000    0.000000
    6    3    0    1    1    0.000003    0.000000
    6    3    0    2    1   -0.000000    0.000000
    6    3    0    1    2   -0.000001   -0.000000
    6    3    0    2    2    0.000003    0.000000
    6    3    1    1    1    0.000000    0.000000
    6    3    1    2    1   -0.000000    0.000000
    6    3    1    1    2    0.000000    0.000000
    6    3    1    2    2    0.000000    0.000000
    6    3    2    1    1    0.000000   -0.000000
    6    3    2    2    1    0.000000   -0.000000
    6    3    2    1    2    0.000000    0.000000
    6    3    2    2    2    0.000000    0.000000
    6    3    3    1    1   -0.000000   -0.000000
    6    3    3    2    1   -0.000000    0.000000
    6    3    3    1    2   -0.000000   -0.000000
    6    3    3    2    2    0.000000   -0.000000
    6    3    4    1    1   -0.000000    0.000000
    6    3    4    2    1   -0.000000    0.000000
    6    3    4    1    2    0.000000    0.000000
    6    3    4    2    2    0.000000    0.000000
    6    3    5    1    1   -0.000000    0.000000
    6    3    5    2    1    0.000000   -0.000000
    6    3    5    1    2    0.000000    0.000000
    6    3    5    2    2   -0.000000    0.000000
    6    4   -3    1    1    0.000000    0.000000
    6    4   -3    2    1   -0.000000    0.000000
    6    4   -3    1    2   -0.000000   -0.000000
    6    4   -3    2    2   -0.000000    0.000000
    6    4   -2    1    1    0.000000   -0.000000
    6    4   -2    2    1   -0.000000    0.000000
    6    4   -2    1    2   -0.000000   -0.000000
    6    4   -2    2    2    0.000000   -0.000000
    6    4   -1    1    1    0.000000    0.000000
    6    4   -1    2    1   -0.000000    0.000000
    6    4   -1    1    2   -0.000000   -0.000000
    6    4   -1    2    2    0.000000    0.000000
    6    4    0    1    1   -0.000003   -0.000000
    6    4    0    2    1    0.000001   -0.000000
    6    4    0    1    2    0.000001    0.000000
    6    4    0    2    2   -0.000002    0.000000
    6    4    1    1    1   -0.000000   -0.000000
    6    4    1    2    1    0.000002   -0.000000
    6    4    1    1    2    0.000000    0.000000
    6    4    1    2    2   -0.000000   -0.000000
    6    4    2    1    1   -0.000000    0.000000
    6    4    2    2    1    0.000000   -0.000000
    6    4    2    1    2    0.000000    0.000000
    6    4    2    2    2    0.000000    0.000000
    6    4    3    1    1    0.000000   -0.000000
    6    4    3    2    1    0.000000   -0.000000
    6    4    3    1    2    0.000000    0.000000
    6    4    3    2    2    0.000000   -0.000000
    6    4    4    1    1   -0.000000   -0.000000
    6    4    4    2    1   -0.000000    0.000000
    6    4    4    1    2   -0.000000   -0.000000
    6    4    4    2    2   -0.000000   -0.000000
    6    4    5    1    1   -0.000000   -0.000000
    6    4    5    2    1    0.000000   -0.000000
    6    4    5    1    2    0.000000    0.000000
    6    4    5    2    2   -0.000000   -0.000000
    6    5   -4    1    1   -0.000000    0.000000
    6    5   -4    2    1    0.000000   -0.000000
    6    5   -4    1    2    0.000000    0.000000
    6    5   -4    2    2   -0.000000   -0.000000
    6    5   -3    1    1    0.000000   -0.000000
    6    5   -3    2    1   -0.000000    0.000000
    6    5   -3    1    2   -0.000000   -0.000000
    6    5   -3    2    2   -0.000000   -0.000000
    6    5   -2    1    1    0.000000    0.000000
    6    5   -2    2    1    0.000000   -0.000000
    6    5   -2    1    2   -0.000000   -0.000000
    6    5   -2    2    2    0.000000   -0.000000
    6    5   -1    1    1   -0.000000    0.000000
    6    5   -1    2    1    0.000001   -0.000000
    6    5   -1    1    2    0.000000    0.000000
    6    5   -1    2    2   -0.000000    0.000000
    6    5    0    1    1    0.000001    0.000000
    6    5    0    2    1   -0.000001    0.000000
    6    5    0    1    2    0.000000    0.000000
    6    5    0    2    2    0.000001    0.000000
    6    5    1    1    1   -0.000000   -0.000000
    6    5    1    2    1   -0.000000    0.000000
    6    5    1    1    2   -0.000000   -0.000000
    6    5    1    2    2   -0.000000   -0.000000
    6    5    2    1    1    0.000000   -0.000000
    6    5    2    2    1   -0.000000    0.000000
    6    5    2    1    2    0.000000    0.000000
    6    5    2    2    2    0.000000    0.000000
    6    5    3    1    1    0.000000   -0.000000
    6    5    3    2    1    0.000000   -0.000000
    6    5    3    1    2   -0.000000   -0.000000
    6    5    3    2    2    0.000000    0.000000
    6    5    4    1    1    0.000000   -0.000000
    6    5    4    2    1   -0.000001    0.000000
    6    5    4    1    2   -0.000000   -0.000000
    6    5    4    2    2    0.000000   -0.000000
    6    5    5    1    1   -0.000000   -0.000000
    6    5    5    2    1    0.000000   -0.000000
    6    5    5    1    2    0.000000    0.000000
    6    5    5    2    2    0.000000    0.000000
    7   -2    5    1    1    0.000000   -0.000000
    7   -2    5    2    1    0.000000   -0.000000
    7   -2    5    1    2   -0.000000   -0.000000
    7   -2    5    2    2    0.000000   -0.000000
    7   -1    4    1    1   -0.000000    0.000000
    7   -1    4    2    1   -0.000000    0.000000
    7   -1    4    1    2   -0.000000   -0.000000
    7   -1    4    2    2   -0.000000    0.000000
    7   -1    5    1    1   -0.000000   -0.000000
    7   -1    5    2    1   -0.000000    0.000000
    7   -1    5    1    2    0.000000    0.000000
    7   -1    5    2    2   -0.000000   -0.000000
    7    0    3    1    1   -0.000000   -0.000000
    7    0    3    2    1    0.000000   -0.000000
    7    0    3    1    2   -0.000000   -0.000000
    7    0    3    2    2   -0.000000   -0.000000
    7    0    4    1    1    0.000000    0.000000
    7    0    4    2    1   -0.000000    0.000000
    7    0    4    1    2   -0.000000   -0.000000
    7    0    4    2    2    0.000000    0.000000
    7    0    5    1    1   -0.000000    0.000000
    7    0    5    2    1   -0.000000    0.000000
    7    0    5    1    2   -0.000000   -0.000000
    7    0    5    2    2   -0.000000    0.000000
    7    1    2    1    1   -0.000000    0.000000
    7    1    2    2    1    0.000000   -0.000000
    7    1    2    1    2    0.000000    0.000000
    7    1    2    2    2   -0.000000   -0.000000
    7    1    3    1    1    0.000000   -0.000000
    7    1    3    2    1   -0.000000    0.000000
    7    1    3    1    2   -0.000000   -0.000000
    7    1    3    2    2   -0.000000    0.000000
    7    1    4    1    1    0.000000    0.000000
    7    1    4    2    1   -0.000000    0.000000
    7    1    4    1    2    0.000000    0.000000
    7    1    4    2    2   -0.000000   -0.000000
    7    1    5    1    1   -0.000000   -0.000000
    7    1    5    2    1   -0.000000    0.000000
    7    1    5    1    2   -0.000000   -0.000000
    7    1    5    2    2   -0.000000   -0.000000
    7    2    1    1    1   -0.000000    0.000000
    7    2    1    2    1   -0.000000    0.000000
    7    2    1    1    2    0.000000    0.000000
    7    2    1    2    2    0.000000    0.000000
    7    2    2    1    1    0.000000    0.000000
    7    2    2    2    1   -0.000000    0.000000
    7    2    2    1    2    0.000000    0.000000
    7    2    2    2    2   -0.000000    0.000000
    7    2    3    1    1   -0.000000    0.000000
    7    2    3    2    1   -0.000000    0.000000
    7    2    3    1    2   -0.000000   -0.000000
    7    2    3    2    2   -0.000000    0.000000
    7    2    4    1    1    0.000000    0.000000
    7    2    4    2    1   -0.000000    0.000000
    7    2    4    1    2    0.000000    0.000000
    7    2    4    2    2    0.000000    0.000000
    7    2    5    1    1   -0.000000    0.000000
    7    2    5    2    1   -0.000000    0.000000
    7    2    5    1    2   -0.000000   -0.000000
    7    2    5    2    2    0.000000   -0.000000
    7    3    0    1    1    0.000000    0.000000
    7    3    0    2    1   -0.000000    0.000000
    7    3    0    1    2    0.000000    0.000000
    7    3    0    2    2    0.000000    0.000000
    7    3    1    1    1    0.000000    0.000000
    7    3    1    2    1   -0.000001    0.000000
    7    3    1    1    2   -0.000001   -0.000000
    7    3    1    2    2    0.000000   -0.000000
    7    3    2    1    1    0.000000    0.000000
    7    3    2    2    1   -0.000000    0.000000
    7    3    2    1    2    0.000000    0.000000
    7    3    2    2    2   -0.000000    0.000000
    7    3    3    1    1   -0.000000    0.000000
    7    3    3    2    1   -0.000000    0.000000
    7    3    3    1    2   -0.000000   -0.000000
    7    3    3    2    2   -0.000000    0.000000
    7    3    4    1    1    0.000000    0.000000
    7    3    4    2    1   -0.000000    0.000000
    7    3    4    1    2   -0.000000   -0.000000
    7    3    4    2    2    0.000000   -0.000000
    7    3    5    1    1   -0.000000   -0.000000
    7    3    5    2    1   -0.000000    0.000000
    7    3    5    1    2    0.000000    0.000000
    7    3    5    2    2   -0.000000   -0.000000
    7    4   -1    1    1    0.000000   -0.000000
    7    4   -1    2    1   -0.000000    0.000000
    7    4   -1    1    2   -0.000001   -0.000000
    7    4   -1    2    2    0.000000   -0.000000
    7    4    0    1    1    0.000000    0.000000
    7    4    0    2    1   -0.000000    0.000000
    7    4    0    1    2    0.000000    0.000000
    7    4    0    2    2    0.000000    0.000000
    7    4    1    1    1   -0.000000    0.000000
    7    4    1    2    1   -0.000000    0.000000
    7    4    1    1    2    0.000000    0.000000
    7    4    1    2    2    0.000000    0.000000
    7    4    2    1    1   -0.000000   -0.000000
    7    4    2    2    1    0.000000   -0.000000
    7    4    2    1    2    0.000000    0.000000
    7    4    2    2    2   -0.000000   -0.000000
    7    4    3    1    1   -0.000000   -0.000000
    7    4    3    2    1    0.000000   -0.000000
    7    4    3    1    2   -0.000000   -0.000000
    7    4    3    2    2   -0.000000   -0.000000
    7    4    4    1    1   -0.000000    0.000000
    7    4    4    2    1   -0.000000    0.000000
    7    4    4    1    2   -0.000000   -0.000000
    7    4    4    2    2   -0.000000    0.000000
    7    4    5    1    1    0.000000    0.000000
    7    4    5    2    1    0.000000   -0.000000
    7    4    5    1    2   -0.000000   -0.000000
    7    4    5    2    2    0.000000    0.000000
    8    0    5    1    1   -0.000000   -0.000000
    8    0    5    2    1   -0.000000    0.000000
    8    0    5    1    2    0.000000    0.000000
    8    0    5    2    2   -0.000000   -0.000000
    8    1    4    1    1    0.000000    0.000000
    8    1    4    2    1   -0.000000    0.000000
    8    1    4    1    2    0.000000    0.000000
    8    1    4    2    2   -0.000000    0.000000
    8    1    5    1    1   -0.000000   -0.000000
    8    1    5    2    1   -0.000000    0.000000
    8    1    5    1    2   -0.000000   -0.000000
    8    1    5    2    2   -0.000000   -0.000000
    8    2    3    1    1   -0.000000    0.000000
    8    2    3    2    1   -0.000000    0.000000
    8    2    3    1    2   -0.000000   -0.000000
    8    2    3    2    2   -0.000000    0.000000
    8    2    4    1    1    0.000000    0.000000
    8    2    4    2    1   -0.000000    0.000000
    8    2    4    1    2   -0.000000   -0.000000
    8    2    4    2    2    0.000000   -0.000000
    8    2    5    1    1   -0.000000   -0.000000
    8    2    5    2    1   -0.000000   -0.000000
    8    2    5    1    2   -0.000000   -0.000000
    8    2    5    2    2   -0.000000   -0.000000
    8    3    2    1    1   -0.000000   -0.000000
    8    3    2    2    1    0.000000   -0.000000
    8    3    2    1    2    0.000000    0.000000
    8    3    2    2    2   -0.000000   -0.000000
    8    3    3    1    1   -0.000000   -0.000000
    8    3    3    2    1   -0.000000    0.000000
    8    3    3    1    2   -0.000000   -0.000000
    8    3    3    2    2   -0.000000    0.000000
    8    3    4    1    1    0.000000    0.000000
    8    3    4    2    1   -0.000000    0.000000
    8    3    4    1    2    0.000000    0.000000
    8    3    4    2    2   -0.000000    0.000000
    8    3    5    1    1   -0.000000    0.000000
    8    3    5    2    1   -0.000000    0.000000
    8    3    5    1    2    0.000000    0.000000
    8    3    5    2    2   -0.000000   -0.000000
