 written on 13Jul2024 at 23:49:16 
           2
        3593
    3    2    2    2    3    1    1    2    1    2    2    2    2    2    2
    2    2    2    3    1    1    1    1    1    1    2    1    1    1    1
    1    2    1    1    1    1    2    1    1    1    2    1    1    2    1
    2    2    2    2    2    2    2    2    2    2    2    2    3    1    1
    1    1    1    1    1    1    1    2    1    1    1    1    1    1    1
    1    2    1    1    1    1    1    1    1    2    1    1    1    1    1
    1    2    1    1    1    1    1    2    1    1    1    1    2    1    1
    1    2    1    1    2    1    2    2    2    2    2    2    2    2    2
    2    2    2    2    2    2    3    1    1    1    1    1    1    1    1
    1    1    1    1    2    1    1    1    1    1    1    1    1    1    1
    1    2    1    1    1    1    1    1    1    1    1    1    2    1    1
    1    1    1    1    1    1    1    2    1    1    1    1    1    1    1
    1    2    1    1    1    1    1    1    1    2    1    1    1    1    1
    1    2    1    1    1    1    1    2    1    1    1    1    2    1    1
    1    2    1    1    2    1    2    2    3    2    2    2    2    2    2
    2    2    2    2    2    2    2    1    1    1    1    1    1    1    1
    1    1    1    1    1    1    1    1    1    1    1    1    1    1    1
    1    1    1    1    1    1    2    1    1    1    1    1    1    1    1
    1    1    1    1    1    2    1    1    1    1    1    1    1    1    1
    1    1    1    2    1    1    1    1    1    1    1    1    1    1    1
    2    1    1    1    1    1    1    1    1    1    1    2    1    1    1
    1    1    1    1    1    1    2    1    1    1    1    1    1    1    1
    2    1    1    1    1    1    1    1    2    1    1    1    1    1    1
    2    1    1    1    1    1    2    1    1    1    1    2    1    1    1
    2    1    1    2    1    3    3    2    2    2    2    2    2    2    2
    2    2    2    1    1    1    1    1    1    1    1    1    1    1    1
    2    1    1    1    1    1    1    1    1    1    1    1    1    1    1
    1    1    1    1    1    1    1    1    1    1    1    1    1    1    1
    1    1    1    1    1    1    1    1    1    1    1    1    1    1    1
    1    1    1    1    1    1    1    1    1    1    1    1    1    1    2
    1    1    1    1    1    1    1    1    1    1    1    1    1    2    1
    1    1    1    1    1    1    1    1    1    1    1    2    1    1    1
    1    1    1    1    1    1    1    1    2    1    1    1    1    1    1
    1    1    1    1    2    1    1    1    1    1    1    1    1    1    2
    1    1    1    1    1    1    1    1    2    1    1    1    1    1    1
    1    2    1    1    1    1    1    1    2    1    1    1    1    1    2
    1    1    1    1    3    1    1    2    2    3    2    2    2    2    2
    2    2    2    1    1    1    1    1    1    1    1    1    2    1    1
    1    1    1    1    1    1    1    1    1    2    1    1    1    1    1
    1    1    1    1    1    1    1    1    1    1    1    1    1    1    1
    1    1    1    1    1    1    1    1    1    1    1    1    1    1    1
    1    1    1    1    1    1    1    1    1    1    1    1    1    1    1
    1    1    1    1    1    1    1    1    1    1    1    1    1    1    1
    1    1    1    1    1    1    1    1    1    1    1    1    1    1    1
    1    1    1    1    1    1    1    2    1    1    1    1    1    1    1
    1    1    1    1    1    1    2    1    1    1    1    1    1    1    1
    1    1    1    1    2    1    1    1    1    1    1    1    1    1    1
    1    2    1    1    1    1    1    1    1    1    1    1    2    1    1
    1    1    1    1    1    1    1    2    1    1    1    1    1    1    1
    1    2    1    1    1    1    1    1    1    3    1    1    1    1    1
    2    1    1    1    2    1    2    3    2    2    2    2    1    1    1
    1    1    1    2    1    1    1    1    1    1    1    1    2    1    1
    1    1    1    1    1    1    1    1    2    1    1    1    1    1    1
    1    1    1    1    1    1    2    1    1    1    1    1    1    1    1
    1    1    1    1    1    1    1    1    1    1    1    1    1    1    1
    1    1    1    1    1    1    1    1    1    1    1    1    1    1    1
    1    1    1    1    1    1    1    1    1    1    1    1    1    1    1
    1    1    1    1    1    1    1    1    1    1    1    1    1    1    1
    1    1    1    1    1    1    1    1    1    1    1    1    1    1    1
    1    1    1    1    1    1    1    1    1    1    1    1    1    1    1
    1    1    1    1    1    1    1    1    1    1    1    1    1    1    1
    1    1    1    1    1    2    1    1    1    1    1    1    1    1    1
    1    1    1    1    2    1    1    1    1    1    1    1    1    1    1
    1    1    2    1    1    1    1    1    1    1    1    1    1    1    3
    1    1    1    1    1    1    1    1    2    1    1    1    1    1    1
    2    1    1    1    1    2    1    1    2    2    3    2    1    1    2
    1    1    1    1    1    2    1    1    1    1    1    1    1    2    1
    1    1    1    1    1    1    1    1    2    1    1    1    1    1    1
    1    1    1    1    1    2    1    1    1    1    1    1    1    1    1
    1    1    1    1    1    1    1    1    1    1    1    1    1    1    1
    1    1    1    1    1    1    1    1    1    1    1    1    1    1    1
    1    1    1    1    1    1    1    1    1    1    1    1    1    1    1
    1    1    1    1    1    1    1    1    1    1    1    1    1    1    1
    1    1    1    1    1    1    1    1    1    1    1    1    1    1    1
    1    1    1    1    1    1    1    1    1    1    1    1    1    1    1
    1    1    1    1    1    1    1    1    1    1    1    1    1    1    1
    1    1    1    1    1    1    1    1    1    1    1    1    1    1    1
    1    1    1    1    1    1    1    1    1    1    1    1    1    1    1
    1    1    1    3    1    1    1    1    1    1    1    1    1    1    1
    1    2    1    1    1    1    1    1    1    1    1    2    1    1    1
    1    1    1    1    2    1    1    1    1    1    2    1    1    1    2
    1    2    2    1    2    1    1    1    1    2    1    1    1    1    1
    1    2    1    1    1    1    1    1    1    1    2    1    1    1    1
    1    1    1    1    1    1    2    1    1    1    1    1    1    1    1
    1    1    1    1    2    1    1    1    1    1    1    1    1    1    1
    1    1    1    1    1    1    1    1    1    1    1    1    1    1    1
    1    1    1    1    1    1    1    1    1    1    1    1    1    1    1
    1    1    1    1    1    1    1    1    1    1    1    1    1    1    1
    1    1    1    1    1    1    1    1    1    1    1    1    1    1    1
    1    1    1    1    1    1    1    1    1    1    1    1    1    1    1
    1    1    1    1    1    1    1    1    1    1    1    1    1    1    1
    1    1    1    1    1    1    1    1    1    1    1    1    1    1    1
    1    1    1    1    1    1    1    1    1    1    1    1    1    1    1
    1    1    1    1    1    1    1    1    1    1    1    1    1    1    1
    1    1    2    1    1    1    1    1    1    1    1    1    1    2    1
    1    1    1    1    1    1    1    2    1    1    1    1    1    1    2
    1    1    1    1    2    1    1    2    2    2    2    1    1    1    2
    1    1    1    1    1    2    1    1    1    1    1    1    1    2    1
    1    1    1    1    1    1    1    1    2    1    1    1    1    1    1
    1    1    1    1    1    2    1    1    1    1    1    1    1    1    1
    1    1    1    1    1    1    1    1    1    1    1    1    1    1    1
    1    1    1    1    1    1    1    1    1    1    1    1    1    1    1
    1    1    1    1    1    1    1    1    1    1    1    1    1    1    1
    1    1    1    1    1    1    1    1    1    1    1    1    1    1    1
    1    1    1    1    1    1    1    1    1    1    1    1    1    1    1
    1    1    1    1    1    1    1    1    1    1    1    1    1    1    1
    1    1    1    1    1    1    1    1    1    1    1    1    1    1    1
    1    1    1    1    1    1    1    1    1    1    1    1    1    1    1
    1    1    1    1    1    1    1    1    1    1    1    1    1    1    1
    1    1    1    2    1    1    1    1    1    1    1    1    1    1    1
    2    1    1    1    1    1    1    1    1    1    2    1    1    1    1
    1    1    1    2    1    1    1    1    1    2    1    1    1    2    1
    2    2    1    1    2    1    1    1    1    2    1    1    1    1    1
    1    2    1    1    1    1    1    1    1    1    2    1    1    1    1
    1    1    1    1    1    1    2    1    1    1    1    1    1    1    1
    1    1    1    1    1    1    1    1    1    1    1    1    1    1    1
    1    1    1    1    1    1    1    1    1    1    1    1    1    1    1
    1    1    1    1    1    1    1    1    1    1    1    1    1    1    1
    1    1    1    1    1    1    1    1    1    1    1    1    1    1    1
    1    1    1    1    1    1    1    1    1    1    1    1    1    1    1
    1    1    1    1    1    1    1    1    1    1    1    1    1    1    1
    1    1    1    1    1    1    1    1    1    1    1    1    1    1    1
    1    1    1    1    1    1    1    1    1    1    1    1    1    1    1
    1    1    1    1    1    1    1    1    1    1    1    1    1    1    1
    1    1    1    1    1    1    1    1    1    1    1    1    1    1    1
    1    2    1    1    1    1    1    1    1    1    1    1    2    1    1
    1    1    1    1    1    1    2    1    1    1    1    1    1    2    1
    1    1    1    2    1    1    2    2    1    2    1    1    1    2    1
    1    1    1    1    2    1    1    1    1    1    1    1    2    1    1
    1    1    1    1    1    1    1    2    1    1    1    1    1    1    1
    1    1    1    1    2    1    1    1    1    1    1    1    1    1    1
    1    1    1    1    1    1    1    1    1    1    1    1    1    1    1
    1    1    1    1    1    1    1    1    1    1    1    1    1    1    1
    1    1    1    1    1    1    1    1    1    1    1    1    1    1    1
    1    1    1    1    1    1    1    1    1    1    1    1    1    1    1
    1    1    1    1    1    1    1    1    1    1    1    1    1    1    1
    1    1    1    1    1    1    1    1    1    1    1    1    1    1    1
    1    1    1    1    1    1    1    1    1    1    1    1    1    1    1
    1    1    1    1    1    1    1    1    1    1    1    1    1    1    1
    1    1    1    1    1    1    1    1    1    1    1    1    1    1    1
    1    1    2    1    1    1    1    1    1    1    1    1    1    1    2
    1    1    1    1    1    1    1    1    1    2    1    1    1    1    1
    1    1    2    1    1    1    1    1    2    1    1    1    2    2    2
    2    1    1    2    1    1    1    1    2    1    1    1    1    1    1
    2    1    1    1    1    1    1    1    1    2    1    1    1    1    1
    1    1    1    1    1    2    1    1    1    1    1    1    1    1    1
    1    1    1    1    1    1    1    1    1    1    1    1    1    1    1
    1    1    1    1    1    1    1    1    1    1    1    1    1    1    1
    1    1    1    1    1    1    1    1    1    1    1    1    1    1    1
    1    1    1    1    1    1    1    1    1    1    1    1    1    1    1
    1    1    1    1    1    1    1    1    1    1    1    1    1    1    1
    1    1    1    1    1    1    1    1    1    1    1    1    1    1    1
    1    1    1    1    1    1    1    1    1    1    1    1    1    1    1
    1    1    1    1    1    1    1    1    1    1    1    1    1    1    1
    1    1    1    1    1    1    1    1    1    1    1    1    1    1    1
    1    1    1    2    1    1    1    1    1    1    1    1    1    1    1
    1    2    1    1    1    1    1    1    1    1    1    1    2    1    1
    1    1    1    1    1    1    2    1    1    1    1    1    1    2    1
    1    1    1    2    1    2    2    1    2    1    1    1    2    1    1
    1    1    1    2    1    1    1    1    1    1    1    2    1    1    1
    1    1    1    1    1    1    2    1    1    1    1    1    1    1    1
    1    1    1    1    3    1    1    1    1    1    1    1    1    1    1
    1    1    1    1    1    1    1    1    1    1    1    1    1    1    1
    1    1    1    1    1    1    1    1    1    1    1    1    1    1    1
    1    1    1    1    1    1    1    1    1    1    1    1    1    1    1
    1    1    1    1    1    1    1    1    1    1    1    1    1    1    1
    1    1    1    1    1    1    1    1    1    1    1    1    1    1    1
    1    1    1    1    1    1    1    1    1    1    1    1    1    1    1
    1    1    1    1    1    1    1    1    1    1    1    1    1    1    1
    1    1    1    1    1    1    1    1    1    1    1    1    1    1    1
    1    1    1    1    1    1    1    1    1    1    1    1    1    1    1
    1    1    2    1    1    1    1    1    1    1    1    1    1    1    2
    1    1    1    1    1    1    1    1    1    2    1    1    1    1    1
    1    1    2    1    1    1    1    1    2    1    1    2    3    2    2
    1    1    2    1    1    1    1    2    1    1    1    1    1    1    2
    1    1    1    1    1    1    1    1    3    1    1    1    1    1    1
    1    1    1    1    1    2    1    1    1    1    1    1    1    1    1
    1    1    1    2    1    1    1    1    1    1    1    1    1    1    1
    1    1    2    1    1    1    1    1    1    1    1    1    1    1    1
    1    1    1    1    1    1    1    1    1    1    1    1    1    1    1
    1    1    1    1    1    1    1    1    1    1    1    1    1    1    1
    1    1    1    1    1    1    1    1    1    1    1    1    1    1    1
    1    1    1    1    1    1    1    1    1    1    1    1    1    1    1
    1    1    1    1    1    1    1    1    1    1    1    1    1    1    1
    1    1    1    1    1    1    1    1    1    1    1    1    1    1    1
    1    1    1    1    1    1    1    1    1    1    1    1    1    1    1
    1    2    1    1    1    1    1    1    1    1    1    1    1    1    2
    1    1    1    1    1    1    1    1    1    1    2    1    1    1    1
    1    1    1    1    2    1    1    1    1    1    1    2    2    2    2
    3    2    1    2    1    1    1    2    1    1    1    1    1    3    1
    1    1    1    1    1    1    2    1    1    1    1    1    1    1    1
    2    1    1    1    1    1    1    1    1    1    2    1    1    1    1
    1    1    1    1    1    1    2    1    1    1    1    1    1    1    1
    1    1    1    2    1    1    1    1    1    1    1    1    1    1    1
    1    2    1    1    1    1    1    1    1    1    1    1    1    1    1
    2    1    1    1    1    1    1    1    1    1    1    1    1    1    1
    1    1    1    1    1    1    1    1    1    1    1    1    1    1    1
    1    1    1    1    1    1    1    1    1    1    1    1    1    1    1
    1    1    1    1    1    1    1    1    1    1    1    1    1    1    1
    1    1    1    1    1    1    1    1    1    1    1    1    1    1    1
    1    1    1    1    1    1    1    1    1    1    1    1    1    2    1
    1    1    1    1    1    1    1    1    1    1    2    1    1    1    1
    1    1    1    1    1    2    2    2    2    2    2    2    2    3    2
    2    1    1    3    1    1    1    1    2    1    1    1    1    1    2
    1    1    1    1    1    1    2    1    1    1    1    1    1    1    2
    1    1    1    1    1    1    1    1    2    1    1    1    1    1    1
    1    1    1    2    1    1    1    1    1    1    1    1    1    1    2
    1    1    1    1    1    1    1    1    1    1    1    2    1    1    1
    1    1    1    1    1    1    1    1    1    2    1    1    1    1    1
    1    1    1    1    1    1    1    1    2    1    1    1    1    1    1
    1    1    1    1    1    1    1    1    1    1    1    1    1    1    1
    1    1    1    1    1    1    1    1    1    1    1    1    1    1    1
    1    1    1    1    1    1    1    1    1    1    1    1    1    1    1
    1    1    1    1    1    1    1    2    1    1    1    1    1    1    1
    1    1    1    1    1    2    2    2    2    2    2    2    2    2    2
    2    3    3    1    2    1    1    2    1    1    1    2    1    1    1
    1    2    1    1    1    1    1    2    1    1    1    1    1    1    2
    1    1    1    1    1    1    1    2    1    1    1    1    1    1    1
    1    2    1    1    1    1    1    1    1    1    1    2    1    1    1
    1    1    1    1    1    1    1    2    1    1    1    1    1    1    1
    1    1    1    1    2    1    1    1    1    1    1    1    1    1    1
    1    1    2    1    1    1    1    1    1    1    1    1    1    1    1
    1    2    1    1    1    1    1    1    1    1    1    1    1    1    1
    1    1    1    1    1    1    1    1    1    1    1    1    1    1    1
    1    2    2    2    2    2    2    2    2    2    2    2    2    2    3
    2    2    1    2    1    1    2    1    1    1    2    1    1    1    1
    2    1    1    1    1    1    2    1    1    1    1    1    1    2    1
    1    1    1    1    1    1    2    1    1    1    1    1    1    1    1
    2    1    1    1    1    1    1    1    1    1    2    1    1    1    1
    1    1    1    1    1    1    2    1    1    1    1    1    1    1    1
    1    1    1    2    1    1    1    1    1    1    1    1    1    1    1
    1    3    2    2    2    2    2    2    2    2    2    2    2    2    2
    2    2    1    2    1    1    2    1    1    1    2    1    1    1    1
    2    1    1    1    1    1    2    1    1    1    1    1    1    2    1
    1    1    1    1    1    1    2    1    1    1    1    1    1    1    1
    2    1    1    1    1    1    1    1    1    1    3    2    2    2    2
    2    2    2    2    2    2    2    2    1    2    1    1    2    1    1
    1    2    1    1    1    1    2    1    1    1    1    1    2    1    1
    1    1    1    1    3    2    2    2    2    2    2    2    2    2    1
    2    1    1    3    2    2    2    3
  -12   -3   -6    1    1    0.000000   -0.000000
  -12   -3   -6    2    1    0.000001   -0.000000
  -12   -3   -6    1    2   -0.000001   -0.000000
  -12   -3   -6    2    2    0.000000    0.000000
  -11   -4   -6    1    1    0.000000   -0.000000
  -11   -4   -6    2    1   -0.000000    0.000000
  -11   -4   -6    1    2    0.000000    0.000000
  -11   -4   -6    2    2    0.000000    0.000000
  -11   -4   -5    1    1    0.000001   -0.000000
  -11   -4   -5    2    1   -0.000000    0.000000
  -11   -4   -5    1    2    0.000001    0.000000
  -11   -4   -5    2    2    0.000001    0.000000
  -11   -4   -4    1    1   -0.000000   -0.000000
  -11   -4   -4    2    1   -0.000000    0.000000
  -11   -4   -4    1    2    0.000001    0.000000
  -11   -4   -4    2    2   -0.000000    0.000000
  -11   -4   -3    1    1   -0.000002    0.000000
  -11   -4   -3    2    1    0.000000   -0.000000
  -11   -4   -3    1    2    0.000001    0.000000
  -11   -4   -3    2    2   -0.000001   -0.000000
  -11   -3   -6    1    1   -0.000001    0.000000
  -11   -3   -6    2    1    0.000000   -0.000000
  -11   -3   -6    1    2    0.000000    0.000000
  -11   -3   -6    2    2   -0.000001   -0.000000
  -11   -3   -5    1    1    0.000000   -0.000000
  -11   -3   -5    2    1    0.000000   -0.000000
  -11   -3   -5    1    2    0.000000    0.000000
  -11   -3   -5    2    2    0.000000    0.000000
  -11   -3   -4    1    1   -0.000001   -0.000000
  -11   -3   -4    2    1   -0.000000    0.000000
  -11   -3   -4    1    2    0.000001    0.000000
  -11   -3   -4    2    2   -0.000000    0.000000
  -11   -2   -6    1    1   -0.000001    0.000000
  -11   -2   -6    2    1    0.000000   -0.000000
  -11   -2   -6    1    2    0.000000    0.000000
  -11   -2   -6    2    2   -0.000001   -0.000000
  -11   -2   -5    1    1    0.000001   -0.000000
  -11   -2   -5    2    1   -0.000000    0.000000
  -11   -2   -5    1    2    0.000001    0.000000
  -11   -2   -5    2    2    0.000001    0.000000
  -11   -1   -6    1    1    0.000000    0.000000
  -11   -1   -6    2    1   -0.000000    0.000000
  -11   -1   -6    1    2    0.000000    0.000000
  -11   -1   -6    2    2    0.000000   -0.000000
  -10   -5   -7    1    1    0.000000   -0.000000
  -10   -5   -7    2    1    0.000001   -0.000000
  -10   -5   -7    1    2    0.000001    0.000000
  -10   -5   -7    2    2    0.000000    0.000000
  -10   -5   -6    1    1    0.000001    0.000000
  -10   -5   -6    2    1    0.000000   -0.000000
  -10   -5   -6    1    2   -0.000001   -0.000000
  -10   -5   -6    2    2    0.000001   -0.000000
  -10   -5   -5    1    1   -0.000000    0.000000
  -10   -5   -5    2    1    0.000000   -0.000000
  -10   -5   -5    1    2   -0.000001   -0.000000
  -10   -5   -5    2    2    0.000000   -0.000000
  -10   -5   -4    1    1   -0.000000    0.000000
  -10   -5   -4    2    1    0.000001   -0.000000
  -10   -5   -4    1    2    0.000000    0.000000
  -10   -5   -4    2    2   -0.000000   -0.000000
  -10   -5   -3    1    1   -0.000000    0.000000
  -10   -5   -3    2    1    0.000001   -0.000000
  -10   -5   -3    1    2   -0.000001   -0.000000
  -10   -5   -3    2    2   -0.000000   -0.000000
  -10   -5   -2    1    1    0.000000    0.000000
  -10   -5   -2    2    1   -0.000000    0.000000
  -10   -5   -2    1    2    0.000001    0.000000
  -10   -5   -2    2    2    0.000000   -0.000000
  -10   -5   -1    1    1    0.000001    0.000000
  -10   -5   -1    2    1    0.000001   -0.000000
  -10   -5   -1    1    2    0.000001    0.000000
  -10   -5   -1    2    2    0.000001   -0.000000
  -10   -5    0    1    1   -0.000002   -0.000000
  -10   -5    0    2    1   -0.000000    0.000000
  -10   -5    0    1    2   -0.000001   -0.000000
  -10   -5    0    2    2   -0.000002    0.000000
  -10   -4   -7    1    1   -0.000001   -0.000000
  -10   -4   -7    2    1    0.000001   -0.000000
  -10   -4   -7    1    2    0.000000    0.000000
  -10   -4   -7    2    2   -0.000001    0.000000
  -10   -4   -6    1    1    0.000000   -0.000000
  -10   -4   -6    2    1    0.000000   -0.000000
  -10   -4   -6    1    2    0.000000    0.000000
  -10   -4   -6    2    2    0.000000    0.000000
  -10   -4   -5    1    1   -0.000000    0.000000
  -10   -4   -5    2    1   -0.000000    0.000000
  -10   -4   -5    1    2    0.000001    0.000000
  -10   -4   -5    2    2   -0.000000   -0.000000
  -10   -4   -4    1    1    0.000000   -0.000000
  -10   -4   -4    2    1    0.000000   -0.000000
  -10   -4   -4    1    2   -0.000001   -0.000000
  -10   -4   -4    2    2    0.000000    0.000000
  -10   -4   -3    1    1   -0.000000   -0.000000
  -10   -4   -3    2    1   -0.000001    0.000000
  -10   -4   -3    1    2    0.000000    0.000000
  -10   -4   -3    2    2   -0.000000    0.000000
  -10   -4   -2    1    1   -0.000000    0.000000
  -10   -4   -2    2    1   -0.000000    0.000000
  -10   -4   -2    1    2    0.000000    0.000000
  -10   -4   -2    2    2   -0.000000   -0.000000
  -10   -4   -1    1    1    0.000001    0.000000
  -10   -4   -1    2    1    0.000001   -0.000000
  -10   -4   -1    1    2    0.000001    0.000000
  -10   -4   -1    2    2    0.000001   -0.000000
  -10   -3   -7    1    1    0.000000   -0.000000
  -10   -3   -7    2    1   -0.000000    0.000000
  -10   -3   -7    1    2   -0.000000   -0.000000
  -10   -3   -7    2    2    0.000000    0.000000
  -10   -3   -6    1    1    0.000000    0.000000
  -10   -3   -6    2    1   -0.000000    0.000000
  -10   -3   -6    1    2    0.000000    0.000000
  -10   -3   -6    2    2    0.000000   -0.000000
  -10   -3   -5    1    1   -0.000000    0.000000
  -10   -3   -5    2    1   -0.000000    0.000000
  -10   -3   -5    1    2   -0.000000    0.000000
  -10   -3   -5    2    2   -0.000000   -0.000000
  -10   -3   -4    1    1    0.000001   -0.000000
  -10   -3   -4    2    1   -0.000000    0.000000
  -10   -3   -4    1    2    0.000000    0.000000
  -10   -3   -4    2    2    0.000001    0.000000
  -10   -3   -3    1    1   -0.000000   -0.000000
  -10   -3   -3    2    1   -0.000001    0.000000
  -10   -3   -3    1    2    0.000000    0.000000
  -10   -3   -3    2    2   -0.000000    0.000000
  -10   -3   -2    1    1    0.000000    0.000000
  -10   -3   -2    2    1   -0.000000    0.000000
  -10   -3   -2    1    2    0.000001    0.000000
  -10   -3   -2    2    2    0.000000   -0.000000
  -10   -2   -7    1    1    0.000000    0.000000
  -10   -2   -7    2    1    0.000001   -0.000000
  -10   -2   -7    1    2   -0.000000   -0.000000
  -10   -2   -7    2    2    0.000000   -0.000000
  -10   -2   -6    1    1   -0.000000    0.000000
  -10   -2   -6    2    1    0.000000   -0.000000
  -10   -2   -6    1    2   -0.000000    0.000000
  -10   -2   -6    2    2   -0.000000   -0.000000
  -10   -2   -5    1    1    0.000000    0.000000
  -10   -2   -5    2    1   -0.000000    0.000000
  -10   -2   -5    1    2   -0.000000    0.000000
  -10   -2   -5    2    2   -0.000000   -0.000000
  -10   -2   -4    1    1    0.000000   -0.000000
  -10   -2   -4    2    1    0.000000   -0.000000
  -10   -2   -4    1    2   -0.000001   -0.000000
  -10   -2   -4    2    2    0.000000    0.000000
  -10   -2   -3    1    1   -0.000000   -0.000000
  -10   -2   -3    2    1    0.000001   -0.000000
  -10   -2   -3    1    2   -0.000001   -0.000000
  -10   -2   -3    2    2   -0.000000    0.000000
  -10   -1   -7    1    1    0.000000    0.000000
  -10   -1   -7    2    1    0.000001   -0.000000
  -10   -1   -7    1    2   -0.000000   -0.000000
  -10   -1   -7    2    2    0.000000   -0.000000
  -10   -1   -6    1    1    0.000000    0.000000
  -10   -1   -6    2    1   -0.000000    0.000000
  -10   -1   -6    1    2    0.000000    0.000000
  -10   -1   -6    2    2    0.000000   -0.000000
  -10   -1   -5    1    1   -0.000000    0.000000
  -10   -1   -5    2    1   -0.000000    0.000000
  -10   -1   -5    1    2    0.000001    0.000000
  -10   -1   -5    2    2   -0.000000   -0.000000
  -10   -1   -4    1    1   -0.000000   -0.000000
  -10   -1   -4    2    1    0.000001   -0.000000
  -10   -1   -4    1    2    0.000000    0.000000
  -10   -1   -4    2    2   -0.000000    0.000000
  -10    0   -7    1    1    0.000000    0.000000
  -10    0   -7    2    1   -0.000000    0.000000
  -10    0   -7    1    2   -0.000000   -0.000000
  -10    0   -7    2    2    0.000000   -0.000000
  -10    0   -6    1    1    0.000000    0.000000
  -10    0   -6    2    1    0.000000   -0.000000
  -10    0   -6    1    2    0.000000    0.000000
  -10    0   -6    2    2    0.000000   -0.000000
  -10    0   -5    1    1    0.000000   -0.000000
  -10    0   -5    2    1    0.000000   -0.000000
  -10    0   -5    1    2   -0.000001   -0.000000
  -10    0   -5    2    2    0.000000    0.000000
  -10    1   -7    1    1   -0.000001    0.000000
  -10    1   -7    2    1    0.000001   -0.000000
  -10    1   -7    1    2    0.000000    0.000000
  -10    1   -7    2    2   -0.000001   -0.000000
  -10    1   -6    1    1    0.000001   -0.000000
  -10    1   -6    2    1    0.000000   -0.000000
  -10    1   -6    1    2   -0.000001   -0.000000
  -10    1   -6    2    2    0.000001    0.000000
  -10    2   -7    1    1    0.000000   -0.000000
  -10    2   -7    2    1    0.000001   -0.000000
  -10    2   -7    1    2    0.000001    0.000000
  -10    2   -7    2    2    0.000000    0.000000
   -9   -6   -7    1    1    0.000000   -0.000000
   -9   -6   -7    2    1   -0.000000    0.000000
   -9   -6   -7    1    2   -0.000000   -0.000000
   -9   -6   -7    2    2    0.000000    0.000000
   -9   -6   -6    1    1    0.000001    0.000000
   -9   -6   -6    2    1   -0.000000    0.000000
   -9   -6   -6    1    2   -0.000000   -0.000000
   -9   -6   -6    2    2    0.000001   -0.000000
   -9   -6   -5    1    1    0.000000    0.000000
   -9   -6   -5    2    1    0.000000   -0.000000
   -9   -6   -5    1    2   -0.000001   -0.000000
   -9   -6   -5    2    2    0.000000   -0.000000
   -9   -6   -4    1    1   -0.000000    0.000000
   -9   -6   -4    2    1    0.000000   -0.000000
   -9   -6   -4    1    2    0.000000    0.000000
   -9   -6   -4    2    2   -0.000000   -0.000000
   -9   -6   -3    1    1    0.000000    0.000000
   -9   -6   -3    2    1   -0.000000    0.000000
   -9   -6   -3    1    2    0.000000    0.000000
   -9   -6   -3    2    2   -0.000000   -0.000000
   -9   -6   -2    1    1    0.000000    0.000000
   -9   -6   -2    2    1    0.000000   -0.000000
   -9   -6   -2    1    2    0.000001    0.000000
   -9   -6   -2    2    2   -0.000000   -0.000000
   -9   -6   -1    1    1    0.000002    0.000000
   -9   -6   -1    2    1   -0.000002    0.000000
   -9   -6   -1    1    2   -0.000001   -0.000000
   -9   -6   -1    2    2    0.000002   -0.000000
   -9   -6    0    1    1   -0.000001    0.000000
   -9   -6    0    2    1   -0.000001    0.000000
   -9   -6    0    1    2   -0.000000   -0.000000
   -9   -6    0    2    2   -0.000001   -0.000000
   -9   -6    1    1    1    0.000001    0.000000
   -9   -6    1    2    1    0.000000   -0.000000
   -9   -6    1    1    2    0.000000    0.000000
   -9   -6    1    2    2    0.000000   -0.000000
   -9   -6    2    1    1   -0.000000   -0.000000
   -9   -6    2    2    1    0.000001   -0.000000
   -9   -6    2    1    2   -0.000001   -0.000000
   -9   -6    2    2    2   -0.000000    0.000000
   -9   -6    3    1    1   -0.000001    0.000000
   -9   -6    3    2    1    0.000001   -0.000000
   -9   -6    3    1    2   -0.000001   -0.000000
   -9   -6    3    2    2   -0.000001   -0.000000
   -9   -5   -7    1    1   -0.000000   -0.000000
   -9   -5   -7    2    1   -0.000000    0.000000
   -9   -5   -7    1    2   -0.000000   -0.000000
   -9   -5   -7    2    2    0.000000    0.000000
   -9   -5   -6    1    1    0.000000   -0.000000
   -9   -5   -6    2    1   -0.000000    0.000000
   -9   -5   -6    1    2    0.000000   -0.000000
   -9   -5   -6    2    2    0.000001    0.000000
   -9   -5   -5    1    1    0.000000    0.000000
   -9   -5   -5    2    1   -0.000000    0.000000
   -9   -5   -5    1    2   -0.000000   -0.000000
   -9   -5   -5    2    2    0.000000   -0.000000
   -9   -5   -4    1    1    0.000001    0.000000
   -9   -5   -4    2    1   -0.000001    0.000000
   -9   -5   -4    1    2    0.000000    0.000000
   -9   -5   -4    2    2    0.000001   -0.000000
   -9   -5   -3    1    1   -0.000000    0.000000
   -9   -5   -3    2    1    0.000000   -0.000000
   -9   -5   -3    1    2   -0.000001   -0.000000
   -9   -5   -3    2    2   -0.000000   -0.000000
   -9   -5   -2    1    1   -0.000000    0.000000
   -9   -5   -2    2    1    0.000001   -0.000000
   -9   -5   -2    1    2    0.000001    0.000000
   -9   -5   -2    2    2   -0.000001   -0.000000
   -9   -5   -1    1    1    0.000001    0.000000
   -9   -5   -1    2    1   -0.000001    0.000000
   -9   -5   -1    1    2    0.000000    0.000000
   -9   -5   -1    2    2    0.000000   -0.000000
   -9   -5    0    1    1    0.000001    0.000000
   -9   -5    0    2    1   -0.000000    0.000000
   -9   -5    0    1    2    0.000000    0.000000
   -9   -5    0    2    2    0.000001   -0.000000
   -9   -5    1    1    1    0.000000   -0.000000
   -9   -5    1    2    1    0.000000   -0.000000
   -9   -5    1    1    2   -0.000001   -0.000000
   -9   -5    1    2    2    0.000000    0.000000
   -9   -5    2    1    1   -0.000000   -0.000000
   -9   -5    2    2    1    0.000001   -0.000000
   -9   -5    2    1    2   -0.000001   -0.000000
   -9   -5    2    2    2   -0.000000    0.000000
   -9   -4   -7    1    1    0.000000   -0.000000
   -9   -4   -7    2    1    0.000000   -0.000000
   -9   -4   -7    1    2   -0.000000   -0.000000
   -9   -4   -7    2    2    0.000000    0.000000
   -9   -4   -6    1    1    0.000000   -0.000000
   -9   -4   -6    2    1   -0.000000    0.000000
   -9   -4   -6    1    2   -0.000000   -0.000000
   -9   -4   -6    2    2    0.000000    0.000000
   -9   -4   -5    1    1   -0.000000   -0.000000
   -9   -4   -5    2    1    0.000000   -0.000000
   -9   -4   -5    1    2    0.000000    0.000000
   -9   -4   -5    2    2    0.000000    0.000000
   -9   -4   -4    1    1    0.000000    0.000000
   -9   -4   -4    2    1    0.000000   -0.000000
   -9   -4   -4    1    2   -0.000000   -0.000000
   -9   -4   -4    2    2    0.000000   -0.000000
   -9   -4   -3    1    1   -0.000000    0.000000
   -9   -4   -3    2    1   -0.000000    0.000000
   -9   -4   -3    1    2   -0.000000   -0.000000
   -9   -4   -3    2    2   -0.000000   -0.000000
   -9   -4   -2    1    1    0.000000    0.000000
   -9   -4   -2    2    1    0.000000   -0.000000
   -9   -4   -2    1    2   -0.000001   -0.000000
   -9   -4   -2    2    2    0.000000   -0.000000
   -9   -4   -1    1    1   -0.000001    0.000000
   -9   -4   -1    2    1    0.000000    0.000000
   -9   -4   -1    1    2   -0.000000   -0.000000
   -9   -4   -1    2    2   -0.000001   -0.000000
   -9   -4    0    1    1    0.000001   -0.000000
   -9   -4    0    2    1   -0.000000    0.000000
   -9   -4    0    1    2    0.000000    0.000000
   -9   -4    0    2    2    0.000001    0.000000
   -9   -4    1    1    1    0.000001   -0.000000
   -9   -4    1    2    1    0.000000   -0.000000
   -9   -4    1    1    2    0.000000   -0.000000
   -9   -4    1    2    2    0.000000    0.000000
   -9   -3   -7    1    1    0.000000   -0.000000
   -9   -3   -7    2    1   -0.000000    0.000000
   -9   -3   -7    1    2   -0.000000   -0.000000
   -9   -3   -7    2    2    0.000000    0.000000
   -9   -3   -6    1    1   -0.000000   -0.000000
   -9   -3   -6    2    1   -0.000000    0.000000
   -9   -3   -6    1    2   -0.000000   -0.000000
   -9   -3   -6    2    2   -0.000000    0.000000
   -9   -3   -5    1    1    0.000000    0.000000
   -9   -3   -5    2    1    0.000000   -0.000000
   -9   -3   -5    1    2   -0.000000    0.000000
   -9   -3   -5    2    2    0.000000   -0.000000
   -9   -3   -4    1    1    0.000000    0.000000
   -9   -3   -4    2    1   -0.000000    0.000000
   -9   -3   -4    1    2    0.000000    0.000000
   -9   -3   -4    2    2    0.000000   -0.000000
   -9   -3   -3    1    1   -0.000001   -0.000000
   -9   -3   -3    2    1    0.000000   -0.000000
   -9   -3   -3    1    2   -0.000000   -0.000000
   -9   -3   -3    2    2   -0.000001    0.000000
   -9   -3   -2    1    1    0.000000   -0.000000
   -9   -3   -2    2    1    0.000000   -0.000000
   -9   -3   -2    1    2   -0.000001   -0.000000
   -9   -3   -2    2    2    0.000000    0.000000
   -9   -3   -1    1    1    0.000001    0.000000
   -9   -3   -1    2    1   -0.000001    0.000000
   -9   -3   -1    1    2    0.000000    0.000000
   -9   -3   -1    2    2    0.000000   -0.000000
   -9   -3    0    1    1   -0.000000   -0.000000
   -9   -3    0    2    1   -0.000001    0.000000
   -9   -3    0    1    2   -0.000000   -0.000000
   -9   -3    0    2    2   -0.000001    0.000000
   -9   -2   -7    1    1   -0.000000   -0.000000
   -9   -2   -7    2    1   -0.000000    0.000000
   -9   -2   -7    1    2   -0.000000   -0.000000
   -9   -2   -7    2    2   -0.000000    0.000000
   -9   -2   -6    1    1    0.000001    0.000000
   -9   -2   -6    2    1    0.000000   -0.000000
   -9   -2   -6    1    2    0.000000    0.000000
   -9   -2   -6    2    2    0.000001   -0.000000
   -9   -2   -5    1    1   -0.000000    0.000000
   -9   -2   -5    2    1   -0.000000    0.000000
   -9   -2   -5    1    2    0.000001    0.000000
   -9   -2   -5    2    2   -0.000000   -0.000000
   -9   -2   -4    1    1    0.000000    0.000000
   -9   -2   -4    2    1   -0.000000    0.000000
   -9   -2   -4    1    2    0.000000    0.000000
   -9   -2   -4    2    2   -0.000000   -0.000000
   -9   -2   -3    1    1    0.000000   -0.000000
   -9   -2   -3    2    1   -0.000000    0.000000
   -9   -2   -3    1    2   -0.000000   -0.000000
   -9   -2   -3    2    2   -0.000000    0.000000
   -9   -2   -2    1    1   -0.000001   -0.000000
   -9   -2   -2    2    1    0.000001   -0.000000
   -9   -2   -2    1    2    0.000001    0.000000
   -9   -2   -2    2    2   -0.000000    0.000000
   -9   -2   -1    1    1    0.000002    0.000000
   -9   -2   -1    2    1   -0.000002    0.000000
   -9   -2   -1    1    2   -0.000001   -0.000000
   -9   -2   -1    2    2    0.000002   -0.000000
   -9   -1   -7    1    1    0.000000   -0.000000
   -9   -1   -7    2    1   -0.000000    0.000000
   -9   -1   -7    1    2    0.000000    0.000000
   -9   -1   -7    2    2    0.000000    0.000000
   -9   -1   -6    1    1    0.000001    0.000000
   -9   -1   -6    2    1    0.000000   -0.000000
   -9   -1   -6    1    2    0.000000    0.000000
   -9   -1   -6    2    2    0.000001   -0.000000
   -9   -1   -5    1    1    0.000000    0.000000
   -9   -1   -5    2    1    0.000000   -0.000000
   -9   -1   -5    1    2   -0.000000    0.000000
   -9   -1   -5    2    2    0.000000   -0.000000
   -9   -1   -4    1    1    0.000000   -0.000000
   -9   -1   -4    2    1    0.000000   -0.000000
   -9   -1   -4    1    2   -0.000000   -0.000000
   -9   -1   -4    2    2    0.000000    0.000000
   -9   -1   -3    1    1   -0.000000   -0.000000
   -9   -1   -3    2    1    0.000000   -0.000000
   -9   -1   -3    1    2   -0.000001   -0.000000
   -9   -1   -3    2    2   -0.000000    0.000000
   -9   -1   -2    1    1   -0.000000    0.000000
   -9   -1   -2    2    1    0.000000   -0.000000
   -9   -1   -2    1    2    0.000001    0.000000
   -9   -1   -2    2    2    0.000000   -0.000000
   -9    0   -7    1    1   -0.000000   -0.000000
   -9    0   -7    2    1   -0.000000    0.000000
   -9    0   -7    1    2   -0.000000   -0.000000
   -9    0   -7    2    2   -0.000000    0.000000
   -9    0   -6    1    1   -0.000000    0.000000
   -9    0   -6    2    1   -0.000000   -0.000000
   -9    0   -6    1    2   -0.000000   -0.000000
   -9    0   -6    2    2   -0.000000   -0.000000
   -9    0   -5    1    1   -0.000000    0.000000
   -9    0   -5    2    1    0.000000   -0.000000
   -9    0   -5    1    2    0.000000    0.000000
   -9    0   -5    2    2   -0.000000   -0.000000
   -9    0   -4    1    1    0.000001   -0.000000
   -9    0   -4    2    1   -0.000001    0.000000
   -9    0   -4    1    2    0.000000    0.000000
   -9    0   -4    2    2    0.000001    0.000000
   -9    0   -3    1    1   -0.000000   -0.000000
   -9    0   -3    2    1   -0.000000    0.000000
   -9    0   -3    1    2    0.000000    0.000000
   -9    0   -3    2    2    0.000000    0.000000
   -9    1   -7    1    1    0.000000   -0.000000
   -9    1   -7    2    1   -0.000000    0.000000
   -9    1   -7    1    2   -0.000000   -0.000000
   -9    1   -7    2    2    0.000000    0.000000
   -9    1   -6    1    1    0.000000   -0.000000
   -9    1   -6    2    1   -0.000000    0.000000
   -9    1   -6    1    2   -0.000000   -0.000000
   -9    1   -6    2    2    0.000000    0.000000
   -9    1   -5    1    1    0.000000   -0.000000
   -9    1   -5    2    1   -0.000000    0.000000
   -9    1   -5    1    2   -0.000000   -0.000000
   -9    1   -5    2    2    0.000000    0.000000
   -9    1   -4    1    1   -0.000000   -0.000000
   -9    1   -4    2    1    0.000000   -0.000000
   -9    1   -4    1    2    0.000000    0.000000
   -9    1   -4    2    2   -0.000000    0.000000
   -9    2   -7    1    1    0.000000    0.000000
   -9    2   -7    2    1    0.000000   -0.000000
   -9    2   -7    1    2   -0.000000   -0.000000
   -9    2   -7    2    2    0.000000   -0.000000
   -9    2   -6    1    1    0.000001   -0.000000
   -9    2   -6    2    1   -0.000000    0.000000
   -9    2   -6    1    2    0.000000    0.000000
   -9    2   -6    2    2    0.000000    0.000000
   -9    2   -5    1    1    0.000000   -0.000000
   -9    2   -5    2    1    0.000000   -0.000000
   -9    2   -5    1    2   -0.000001   -0.000000
   -9    2   -5    2    2    0.000000    0.000000
   -9    3   -7    1    1    0.000000   -0.000000
   -9    3   -7    2    1   -0.000000    0.000000
   -9    3   -7    1    2   -0.000000   -0.000000
   -9    3   -7    2    2   -0.000000    0.000000
   -9    3   -6    1    1    0.000001   -0.000000
   -9    3   -6    2    1   -0.000000    0.000000
   -9    3   -6    1    2   -0.000000   -0.000000
   -9    3   -6    2    2    0.000001    0.000000
   -9    4   -7    1    1    0.000000   -0.000000
   -9    4   -7    2    1   -0.000000    0.000000
   -9    4   -7    1    2   -0.000000   -0.000000
   -9    4   -7    2    2    0.000000    0.000000
   -8   -7   -7    1    1    0.000000   -0.000000
   -8   -7   -7    2    1   -0.000000    0.000000
   -8   -7   -7    1    2    0.000000    0.000000
   -8   -7   -7    2    2    0.000000    0.000000
   -8   -7   -6    1    1    0.000001   -0.000000
   -8   -7   -6    2    1    0.000000    0.000000
   -8   -7   -6    1    2   -0.000000   -0.000000
   -8   -7   -6    2    2    0.000001    0.000000
   -8   -7   -5    1    1   -0.000000    0.000000
   -8   -7   -5    2    1   -0.000000    0.000000
   -8   -7   -5    1    2    0.000000   -0.000000
   -8   -7   -5    2    2   -0.000000   -0.000000
   -8   -7   -4    1    1    0.000000    0.000000
   -8   -7   -4    2    1    0.000000   -0.000000
   -8   -7   -4    1    2    0.000001    0.000000
   -8   -7   -4    2    2    0.000000   -0.000000
   -8   -7   -3    1    1   -0.000000    0.000000
   -8   -7   -3    2    1    0.000000   -0.000000
   -8   -7   -3    1    2    0.000000    0.000000
   -8   -7   -3    2    2   -0.000000   -0.000000
   -8   -7   -2    1    1   -0.000000   -0.000000
   -8   -7   -2    2    1   -0.000000    0.000000
   -8   -7   -2    1    2    0.000000    0.000000
   -8   -7   -2    2    2   -0.000001    0.000000
   -8   -7   -1    1    1   -0.000001   -0.000000
   -8   -7   -1    2    1    0.000000   -0.000000
   -8   -7   -1    1    2    0.000001    0.000000
   -8   -7   -1    2    2   -0.000000    0.000000
   -8   -7    0    1    1   -0.000001    0.000000
   -8   -7    0    2    1    0.000002   -0.000000
   -8   -7    0    1    2   -0.000000   -0.000000
   -8   -7    0    2    2   -0.000001   -0.000000
   -8   -7    1    1    1   -0.000001    0.000000
   -8   -7    1    2    1    0.000000   -0.000000
   -8   -7    1    1    2    0.000000    0.000000
   -8   -7    1    2    2   -0.000001   -0.000000
   -8   -7    2    1    1    0.000001    0.000000
   -8   -7    2    2    1   -0.000000   -0.000000
   -8   -7    2    1    2    0.000001    0.000000
   -8   -7    2    2    2    0.000001   -0.000000
   -8   -7    3    1    1    0.000000   -0.000000
   -8   -7    3    2    1    0.000000   -0.000000
   -8   -7    3    1    2    0.000000    0.000000
   -8   -7    3    2    2    0.000000    0.000000
   -8   -7    4    1    1    0.000000   -0.000000
   -8   -7    4    2    1   -0.000001    0.000000
   -8   -7    4    1    2    0.000000    0.000000
   -8   -7    4    2    2    0.000000    0.000000
   -8   -7    5    1    1    0.000000   -0.000000
   -8   -7    5    2    1   -0.000000    0.000000
   -8   -7    5    1    2    0.000001    0.000000
   -8   -7    5    2    2    0.000000    0.000000
   -8   -7    6    1    1   -0.000000   -0.000000
   -8   -7    6    2    1   -0.000001    0.000000
   -8   -7    6    1    2    0.000001    0.000000
   -8   -7    6    2    2   -0.000000    0.000000
   -8   -6   -7    1    1   -0.000000   -0.000000
   -8   -6   -7    2    1    0.000000   -0.000000
   -8   -6   -7    1    2    0.000000   -0.000000
   -8   -6   -7    2    2   -0.000000    0.000000
   -8   -6   -6    1    1    0.000000   -0.000000
   -8   -6   -6    2    1   -0.000000    0.000000
   -8   -6   -6    1    2    0.000000    0.000000
   -8   -6   -6    2    2    0.000000    0.000000
   -8   -6   -5    1    1   -0.000000    0.000000
   -8   -6   -5    2    1    0.000000   -0.000000
   -8   -6   -5    1    2    0.000000    0.000000
   -8   -6   -5    2    2   -0.000000   -0.000000
   -8   -6   -4    1    1   -0.000000    0.000000
   -8   -6   -4    2    1   -0.000000    0.000000
   -8   -6   -4    1    2    0.000000    0.000000
   -8   -6   -4    2    2   -0.000000   -0.000000
   -8   -6   -3    1    1    0.000000    0.000000
   -8   -6   -3    2    1   -0.000000    0.000000
   -8   -6   -3    1    2    0.000000    0.000000
   -8   -6   -3    2    2    0.000000   -0.000000
   -8   -6   -2    1    1    0.000001    0.000000
   -8   -6   -2    2    1    0.000000   -0.000000
   -8   -6   -2    1    2   -0.000000   -0.000000
   -8   -6   -2    2    2    0.000001   -0.000000
   -8   -6   -1    1    1   -0.000000   -0.000000
   -8   -6   -1    2    1    0.000001   -0.000000
   -8   -6   -1    1    2    0.000001    0.000000
   -8   -6   -1    2    2   -0.000000    0.000000
   -8   -6    0    1    1   -0.000000    0.000000
   -8   -6    0    2    1   -0.000000    0.000000
   -8   -6    0    1    2   -0.000000   -0.000000
   -8   -6    0    2    2    0.000000   -0.000000
   -8   -6    1    1    1    0.000000    0.000000
   -8   -6    1    2    1   -0.000000    0.000000
   -8   -6    1    1    2    0.000000    0.000000
   -8   -6    1    2    2    0.000000   -0.000000
   -8   -6    2    1    1   -0.000000    0.000000
   -8   -6    2    2    1    0.000000   -0.000000
   -8   -6    2    1    2    0.000000    0.000000
   -8   -6    2    2    2   -0.000000   -0.000000
   -8   -6    3    1    1   -0.000000    0.000000
   -8   -6    3    2    1   -0.000000    0.000000
   -8   -6    3    1    2   -0.000001   -0.000000
   -8   -6    3    2    2   -0.000000   -0.000000
   -8   -6    4    1    1   -0.000000    0.000000
   -8   -6    4    2    1    0.000000   -0.000000
   -8   -6    4    1    2   -0.000000   -0.000000
   -8   -6    4    2    2   -0.000000   -0.000000
   -8   -6    5    1    1    0.000000    0.000000
   -8   -6    5    2    1   -0.000000    0.000000
   -8   -6    5    1    2    0.000001    0.000000
   -8   -6    5    2    2    0.000000   -0.000000
   -8   -5   -7    1    1    0.000001   -0.000000
   -8   -5   -7    2    1    0.000001   -0.000000
   -8   -5   -7    1    2   -0.000000   -0.000000
   -8   -5   -7    2    2    0.000001    0.000000
   -8   -5   -6    1    1   -0.000000   -0.000000
   -8   -5   -6    2    1   -0.000000    0.000000
   -8   -5   -6    1    2    0.000000    0.000000
   -8   -5   -6    2    2    0.000000    0.000000
   -8   -5   -5    1    1   -0.000000   -0.000000
   -8   -5   -5    2    1    0.000000   -0.000000
   -8   -5   -5    1    2    0.000000    0.000000
   -8   -5   -5    2    2   -0.000000    0.000000
   -8   -5   -4    1    1    0.000000    0.000000
   -8   -5   -4    2    1    0.000000   -0.000000
   -8   -5   -4    1    2   -0.000000    0.000000
   -8   -5   -4    2    2    0.000000   -0.000000
   -8   -5   -3    1    1   -0.000000    0.000000
   -8   -5   -3    2    1    0.000000   -0.000000
   -8   -5   -3    1    2   -0.000000   -0.000000
   -8   -5   -3    2    2   -0.000000   -0.000000
   -8   -5   -2    1    1    0.000000    0.000000
   -8   -5   -2    2    1   -0.000000    0.000000
   -8   -5   -2    1    2    0.000000    0.000000
   -8   -5   -2    2    2    0.000000   -0.000000
   -8   -5   -1    1    1   -0.000000    0.000000
   -8   -5   -1    2    1   -0.000002    0.000000
   -8   -5   -1    1    2    0.000000    0.000000
   -8   -5   -1    2    2   -0.000000   -0.000000
   -8   -5    0    1    1    0.000001    0.000000
   -8   -5    0    2    1    0.000000   -0.000000
   -8   -5    0    1    2    0.000000    0.000000
   -8   -5    0    2    2    0.000001   -0.000000
   -8   -5    1    1    1   -0.000000   -0.000000
   -8   -5    1    2    1    0.000000   -0.000000
   -8   -5    1    1    2    0.000000    0.000000
   -8   -5    1    2    2   -0.000001    0.000000
   -8   -5    2    1    1    0.000000   -0.000000
   -8   -5    2    2    1    0.000000   -0.000000
   -8   -5    2    1    2   -0.000000   -0.000000
   -8   -5    2    2    2    0.000000    0.000000
   -8   -5    3    1    1   -0.000000    0.000000
   -8   -5    3    2    1   -0.000000    0.000000
   -8   -5    3    1    2   -0.000001   -0.000000
   -8   -5    3    2    2   -0.000000   -0.000000
   -8   -5    4    1    1    0.000000    0.000000
   -8   -5    4    2    1   -0.000001    0.000000
   -8   -5    4    1    2    0.000000    0.000000
   -8   -5    4    2    2    0.000000   -0.000000
   -8   -4   -7    1    1   -0.000000   -0.000000
   -8   -4   -7    2    1    0.000001   -0.000000
   -8   -4   -7    1    2    0.000000    0.000000
   -8   -4   -7    2    2   -0.000000    0.000000
   -8   -4   -6    1    1   -0.000000   -0.000000
   -8   -4   -6    2    1    0.000000   -0.000000
   -8   -4   -6    1    2    0.000000    0.000000
   -8   -4   -6    2    2   -0.000000    0.000000
   -8   -4   -5    1    1   -0.000000   -0.000000
   -8   -4   -5    2    1    0.000000   -0.000000
   -8   -4   -5    1    2   -0.000000   -0.000000
   -8   -4   -5    2    2   -0.000000    0.000000
   -8   -4   -4    1    1   -0.000001   -0.000000
   -8   -4   -4    2    1    0.000000   -0.000000
   -8   -4   -4    1    2   -0.000000   -0.000000
   -8   -4   -4    2    2   -0.000001    0.000000
   -8   -4   -3    1    1   -0.000000    0.000000
   -8   -4   -3    2    1   -0.000000   -0.000000
   -8   -4   -3    1    2   -0.000000   -0.000000
   -8   -4   -3    2    2   -0.000000   -0.000000
   -8   -4   -2    1    1    0.000001    0.000000
   -8   -4   -2    2    1   -0.000000    0.000000
   -8   -4   -2    1    2    0.000001    0.000000
   -8   -4   -2    2    2    0.000001   -0.000000
   -8   -4   -1    1    1    0.000000    0.000000
   -8   -4   -1    2    1    0.000001   -0.000000
   -8   -4   -1    1    2    0.000000    0.000000
   -8   -4   -1    2    2    0.000000   -0.000000
   -8   -4    0    1    1   -0.000001    0.000000
   -8   -4    0    2    1    0.000000   -0.000000
   -8   -4    0    1    2   -0.000001   -0.000000
   -8   -4    0    2    2   -0.000001   -0.000000
   -8   -4    1    1    1   -0.000000   -0.000000
   -8   -4    1    2    1    0.000000   -0.000000
   -8   -4    1    1    2    0.000000    0.000000
   -8   -4    1    2    2   -0.000001    0.000000
   -8   -4    2    1    1   -0.000000   -0.000000
   -8   -4    2    2    1    0.000000    0.000000
   -8   -4    2    1    2    0.000000    0.000000
   -8   -4    2    2    2   -0.000000    0.000000
   -8   -4    3    1    1    0.000000    0.000000
   -8   -4    3    2    1    0.000000   -0.000000
   -8   -4    3    1    2    0.000000    0.000000
   -8   -4    3    2    2    0.000000   -0.000000
   -8   -3   -7    1    1    0.000000   -0.000000
   -8   -3   -7    2    1   -0.000000    0.000000
   -8   -3   -7    1    2    0.000000    0.000000
   -8   -3   -7    2    2    0.000000    0.000000
   -8   -3   -6    1    1    0.000000   -0.000000
   -8   -3   -6    2    1    0.000000    0.000000
   -8   -3   -6    1    2    0.000000    0.000000
   -8   -3   -6    2    2    0.000000    0.000000
   -8   -3   -5    1    1   -0.000000   -0.000000
   -8   -3   -5    2    1    0.000000   -0.000000
   -8   -3   -5    1    2    0.000000    0.000000
   -8   -3   -5    2    2   -0.000000    0.000000
   -8   -3   -4    1    1    0.000000    0.000000
   -8   -3   -4    2    1   -0.000000    0.000000
   -8   -3   -4    1    2    0.000001    0.000000
   -8   -3   -4    2    2    0.000000   -0.000000
   -8   -3   -3    1    1    0.000000    0.000000
   -8   -3   -3    2    1   -0.000000    0.000000
   -8   -3   -3    1    2   -0.000001   -0.000000
   -8   -3   -3    2    2    0.000000   -0.000000
   -8   -3   -2    1    1   -0.000001   -0.000000
   -8   -3   -2    2    1    0.000001   -0.000000
   -8   -3   -2    1    2   -0.000001   -0.000000
   -8   -3   -2    2    2   -0.000001    0.000000
   -8   -3   -1    1    1    0.000000    0.000000
   -8   -3   -1    2    1    0.000001   -0.000000
   -8   -3   -1    1    2    0.000000    0.000000
   -8   -3   -1    2    2    0.000000   -0.000000
   -8   -3    0    1    1    0.000001    0.000000
   -8   -3    0    2    1    0.000000   -0.000000
   -8   -3    0    1    2    0.000000    0.000000
   -8   -3    0    2    2    0.000000   -0.000000
   -8   -3    1    1    1    0.000001   -0.000000
   -8   -3    1    2    1   -0.000000   -0.000000
   -8   -3    1    1    2    0.000000    0.000000
   -8   -3    1    2    2    0.000000    0.000000
   -8   -3    2    1    1    0.000001   -0.000000
   -8   -3    2    2    1   -0.000000    0.000000
   -8   -3    2    1    2    0.000001    0.000000
   -8   -3    2    2    2    0.000001    0.000000
   -8   -2   -7    1    1   -0.000000   -0.000000
   -8   -2   -7    2    1    0.000000   -0.000000
   -8   -2   -7    1    2    0.000000   -0.000000
   -8   -2   -7    2    2   -0.000000    0.000000
   -8   -2   -6    1    1   -0.000000   -0.000000
   -8   -2   -6    2    1    0.000000   -0.000000
   -8   -2   -6    1    2   -0.000000   -0.000000
   -8   -2   -6    2    2    0.000000    0.000000
   -8   -2   -5    1    1    0.000000    0.000000
   -8   -2   -5    2    1    0.000000   -0.000000
   -8   -2   -5    1    2   -0.000001   -0.000000
   -8   -2   -5    2    2    0.000000   -0.000000
   -8   -2   -4    1    1   -0.000000    0.000000
   -8   -2   -4    2    1   -0.000001    0.000000
   -8   -2   -4    1    2    0.000000    0.000000
   -8   -2   -4    2    2   -0.000000   -0.000000
   -8   -2   -3    1    1    0.000000    0.000000
   -8   -2   -3    2    1   -0.000000    0.000000
   -8   -2   -3    1    2   -0.000001   -0.000000
   -8   -2   -3    2    2    0.000000   -0.000000
   -8   -2   -2    1    1    0.000001   -0.000000
   -8   -2   -2    2    1   -0.000000    0.000000
   -8   -2   -2    1    2    0.000001    0.000000
   -8   -2   -2    2    2    0.000001    0.000000
   -8   -2   -1    1    1   -0.000000    0.000000
   -8   -2   -1    2    1   -0.000002    0.000000
   -8   -2   -1    1    2    0.000000    0.000000
   -8   -2   -1    2    2   -0.000000   -0.000000
   -8   -2    0    1    1    0.000000    0.000000
   -8   -2    0    2    1   -0.000000    0.000000
   -8   -2    0    1    2   -0.000000    0.000000
   -8   -2    0    2    2   -0.000000   -0.000000
   -8   -2    1    1    1   -0.000001   -0.000000
   -8   -2    1    2    1    0.000000   -0.000000
   -8   -2    1    1    2    0.000000    0.000000
   -8   -2    1    2    2   -0.000001    0.000000
   -8   -1   -7    1    1    0.000001   -0.000000
   -8   -1   -7    2    1    0.000000   -0.000000
   -8   -1   -7    1    2    0.000001    0.000000
   -8   -1   -7    2    2    0.000001    0.000000
   -8   -1   -6    1    1   -0.000000   -0.000000
   -8   -1   -6    2    1    0.000000   -0.000000
   -8   -1   -6    1    2    0.000000    0.000000
   -8   -1   -6    2    2   -0.000000    0.000000
   -8   -1   -5    1    1    0.000000    0.000000
   -8   -1   -5    2    1    0.000000   -0.000000
   -8   -1   -5    1    2   -0.000001   -0.000000
   -8   -1   -5    2    2    0.000000   -0.000000
   -8   -1   -4    1    1    0.000000    0.000000
   -8   -1   -4    2    1   -0.000000   -0.000000
   -8   -1   -4    1    2    0.000001    0.000000
   -8   -1   -4    2    2    0.000000   -0.000000
   -8   -1   -3    1    1   -0.000000   -0.000000
   -8   -1   -3    2    1   -0.000000   -0.000000
   -8   -1   -3    1    2   -0.000000   -0.000000
   -8   -1   -3    2    2   -0.000000    0.000000
   -8   -1   -2    1    1    0.000000   -0.000000
   -8   -1   -2    2    1   -0.000000    0.000000
   -8   -1   -2    1    2    0.000000    0.000000
   -8   -1   -2    2    2    0.000000    0.000000
   -8   -1   -1    1    1   -0.000000    0.000000
   -8   -1   -1    2    1    0.000001   -0.000000
   -8   -1   -1    1    2    0.000001    0.000000
   -8   -1   -1    2    2   -0.000000   -0.000000
   -8   -1    0    1    1   -0.000001    0.000000
   -8   -1    0    2    1    0.000002   -0.000000
   -8   -1    0    1    2   -0.000000   -0.000000
   -8   -1    0    2    2   -0.000001   -0.000000
   -8    0   -7    1    1    0.000001   -0.000000
   -8    0   -7    2    1    0.000000   -0.000000
   -8    0   -7    1    2    0.000001    0.000000
   -8    0   -7    2    2    0.000001    0.000000
   -8    0   -6    1    1   -0.000000   -0.000000
   -8    0   -6    2    1    0.000000   -0.000000
   -8    0   -6    1    2   -0.000000   -0.000000
   -8    0   -6    2    2    0.000000    0.000000
   -8    0   -5    1    1   -0.000000    0.000000
   -8    0   -5    2    1    0.000000   -0.000000
   -8    0   -5    1    2    0.000000    0.000000
   -8    0   -5    2    2   -0.000000   -0.000000
   -8    0   -4    1    1   -0.000001    0.000000
   -8    0   -4    2    1    0.000000   -0.000000
   -8    0   -4    1    2   -0.000000   -0.000000
   -8    0   -4    2    2   -0.000001   -0.000000
   -8    0   -3    1    1   -0.000000   -0.000000
   -8    0   -3    2    1    0.000000   -0.000000
   -8    0   -3    1    2   -0.000000   -0.000000
   -8    0   -3    2    2   -0.000000    0.000000
   -8    0   -2    1    1    0.000000    0.000000
   -8    0   -2    2    1    0.000000   -0.000000
   -8    0   -2    1    2   -0.000000   -0.000000
   -8    0   -2    2    2    0.000001   -0.000000
   -8    0   -1    1    1   -0.000000    0.000000
   -8    0   -1    2    1    0.000000   -0.000000
   -8    0   -1    1    2    0.000001    0.000000
   -8    0   -1    2    2   -0.000000   -0.000000
   -8    1   -7    1    1   -0.000000   -0.000000
   -8    1   -7    2    1    0.000000   -0.000000
   -8    1   -7    1    2    0.000000   -0.000000
   -8    1   -7    2    2   -0.000000    0.000000
   -8    1   -6    1    1    0.000000   -0.000000
   -8    1   -6    2    1    0.000000    0.000000
   -8    1   -6    1    2    0.000000    0.000000
   -8    1   -6    2    2    0.000000    0.000000
   -8    1   -5    1    1   -0.000000   -0.000000
   -8    1   -5    2    1    0.000000   -0.000000
   -8    1   -5    1    2   -0.000000   -0.000000
   -8    1   -5    2    2   -0.000000    0.000000
   -8    1   -4    1    1    0.000000   -0.000000
   -8    1   -4    2    1    0.000000   -0.000000
   -8    1   -4    1    2   -0.000000   -0.000000
   -8    1   -4    2    2    0.000000    0.000000
   -8    1   -3    1    1    0.000000   -0.000000
   -8    1   -3    2    1   -0.000000    0.000000
   -8    1   -3    1    2    0.000000    0.000000
   -8    1   -3    2    2    0.000001    0.000000
   -8    1   -2    1    1   -0.000001    0.000000
   -8    1   -2    2    1   -0.000000    0.000000
   -8    1   -2    1    2    0.000000    0.000000
   -8    1   -2    2    2   -0.000001   -0.000000
   -8    2   -7    1    1    0.000000    0.000000
   -8    2   -7    2    1   -0.000000    0.000000
   -8    2   -7    1    2    0.000000    0.000000
   -8    2   -7    2    2    0.000000   -0.000000
   -8    2   -6    1    1   -0.000000   -0.000000
   -8    2   -6    2    1    0.000000   -0.000000
   -8    2   -6    1    2    0.000000    0.000000
   -8    2   -6    2    2   -0.000000    0.000000
   -8    2   -5    1    1   -0.000000   -0.000000
   -8    2   -5    2    1    0.000000   -0.000000
   -8    2   -5    1    2    0.000000    0.000000
   -8    2   -5    2    2   -0.000000    0.000000
   -8    2   -4    1    1   -0.000000   -0.000000
   -8    2   -4    2    1   -0.000000    0.000000
   -8    2   -4    1    2    0.000000   -0.000000
   -8    2   -4    2    2   -0.000000    0.000000
   -8    2   -3    1    1   -0.000000   -0.000000
   -8    2   -3    2    1    0.000000   -0.000000
   -8    2   -3    1    2    0.000000    0.000000
   -8    2   -3    2    2   -0.000000    0.000000
   -8    3   -7    1    1   -0.000000    0.000000
   -8    3   -7    2    1    0.000001   -0.000000
   -8    3   -7    1    2    0.000000    0.000000
   -8    3   -7    2    2   -0.000000   -0.000000
   -8    3   -6    1    1    0.000000   -0.000000
   -8    3   -6    2    1   -0.000000    0.000000
   -8    3   -6    1    2    0.000000    0.000000
   -8    3   -6    2    2   -0.000000    0.000000
   -8    3   -5    1    1   -0.000000   -0.000000
   -8    3   -5    2    1    0.000000   -0.000000
   -8    3   -5    1    2    0.000000    0.000000
   -8    3   -5    2    2   -0.000000    0.000000
   -8    3   -4    1    1    0.000000   -0.000000
   -8    3   -4    2    1    0.000000   -0.000000
   -8    3   -4    1    2    0.000001    0.000000
   -8    3   -4    2    2    0.000000    0.000000
   -8    4   -7    1    1    0.000001    0.000000
   -8    4   -7    2    1    0.000001   -0.000000
   -8    4   -7    1    2   -0.000000   -0.000000
   -8    4   -7    2    2    0.000001   -0.000000
   -8    4   -6    1    1    0.000000   -0.000000
   -8    4   -6    2    1   -0.000000    0.000000
   -8    4   -6    1    2    0.000000    0.000000
   -8    4   -6    2    2    0.000000    0.000000
   -8    4   -5    1    1   -0.000000   -0.000000
   -8    4   -5    2    1   -0.000000   -0.000000
   -8    4   -5    1    2    0.000000   -0.000000
   -8    4   -5    2    2   -0.000000    0.000000
   -8    5   -7    1    1   -0.000000    0.000000
   -8    5   -7    2    1    0.000000   -0.000000
   -8    5   -7    1    2    0.000000    0.000000
   -8    5   -7    2    2   -0.000000   -0.000000
   -8    5   -6    1    1    0.000001   -0.000000
   -8    5   -6    2    1    0.000000   -0.000000
   -8    5   -6    1    2   -0.000000   -0.000000
   -8    5   -6    2    2    0.000001    0.000000
   -8    6   -7    1    1    0.000000    0.000000
   -8    6   -7    2    1   -0.000000    0.000000
   -8    6   -7    1    2    0.000000    0.000000
   -8    6   -7    2    2    0.000000   -0.000000
   -7   -8   -6    1    1   -0.000000    0.000000
   -7   -8   -6    2    1    0.000001   -0.000000
   -7   -8   -6    1    2   -0.000001   -0.000000
   -7   -8   -6    2    2   -0.000000   -0.000000
   -7   -8   -5    1    1    0.000000    0.000000
   -7   -8   -5    2    1    0.000001   -0.000000
   -7   -8   -5    1    2   -0.000000   -0.000000
   -7   -8   -5    2    2    0.000000   -0.000000
   -7   -8   -4    1    1    0.000000    0.000000
   -7   -8   -4    2    1    0.000000   -0.000000
   -7   -8   -4    1    2   -0.000001   -0.000000
   -7   -8   -4    2    2    0.000000   -0.000000
   -7   -8   -3    1    1    0.000000    0.000000
   -7   -8   -3    2    1    0.000000   -0.000000
   -7   -8   -3    1    2    0.000000    0.000000
   -7   -8   -3    2    2    0.000000   -0.000000
   -7   -8   -2    1    1    0.000001   -0.000000
   -7   -8   -2    2    1    0.000001   -0.000000
   -7   -8   -2    1    2   -0.000000    0.000000
   -7   -8   -2    2    2    0.000001    0.000000
   -7   -8   -1    1    1   -0.000001   -0.000000
   -7   -8   -1    2    1    0.000000   -0.000000
   -7   -8   -1    1    2    0.000000    0.000000
   -7   -8   -1    2    2   -0.000001    0.000000
   -7   -8    0    1    1   -0.000001   -0.000000
   -7   -8    0    2    1   -0.000000    0.000000
   -7   -8    0    1    2    0.000002    0.000000
   -7   -8    0    2    2   -0.000001    0.000000
   -7   -8    1    1    1   -0.000001    0.000000
   -7   -8    1    2    1    0.000001   -0.000000
   -7   -8    1    1    2    0.000000    0.000000
   -7   -8    1    2    2   -0.000000   -0.000000
   -7   -8    2    1    1   -0.000000    0.000000
   -7   -8    2    2    1    0.000000   -0.000000
   -7   -8    2    1    2   -0.000000   -0.000000
   -7   -8    2    2    2   -0.000001   -0.000000
   -7   -8    3    1    1   -0.000000   -0.000000
   -7   -8    3    2    1    0.000000   -0.000000
   -7   -8    3    1    2    0.000000    0.000000
   -7   -8    3    2    2   -0.000000    0.000000
   -7   -8    4    1    1    0.000000   -0.000000
   -7   -8    4    2    1    0.000001   -0.000000
   -7   -8    4    1    2    0.000000    0.000000
   -7   -8    4    2    2    0.000000    0.000000
   -7   -8    5    1    1   -0.000000   -0.000000
   -7   -8    5    2    1    0.000000    0.000000
   -7   -8    5    1    2   -0.000000   -0.000000
   -7   -8    5    2    2   -0.000000    0.000000
   -7   -8    6    1    1    0.000001    0.000000
   -7   -8    6    2    1   -0.000000    0.000000
   -7   -8    6    1    2    0.000000   -0.000000
   -7   -8    6    2    2    0.000001   -0.000000
   -7   -8    7    1    1    0.000000    0.000000
   -7   -8    7    2    1    0.000000   -0.000000
   -7   -8    7    1    2   -0.000000   -0.000000
   -7   -8    7    2    2    0.000000   -0.000000
   -7   -7   -7    1    1    0.000001   -0.000000
   -7   -7   -7    2    1    0.000000   -0.000000
   -7   -7   -7    1    2   -0.000000   -0.000000
   -7   -7   -7    2    2    0.000001    0.000000
   -7   -7   -6    1    1   -0.000000   -0.000000
   -7   -7   -6    2    1   -0.000000    0.000000
   -7   -7   -6    1    2   -0.000001   -0.000000
   -7   -7   -6    2    2   -0.000000    0.000000
   -7   -7   -5    1    1    0.000000    0.000000
   -7   -7   -5    2    1   -0.000000    0.000000
   -7   -7   -5    1    2   -0.000000   -0.000000
   -7   -7   -5    2    2    0.000001   -0.000000
   -7   -7   -4    1    1   -0.000000    0.000000
   -7   -7   -4    2    1   -0.000000    0.000000
   -7   -7   -4    1    2   -0.000000   -0.000000
   -7   -7   -4    2    2   -0.000000   -0.000000
   -7   -7   -3    1    1   -0.000000    0.000000
   -7   -7   -3    2    1   -0.000000    0.000000
   -7   -7   -3    1    2   -0.000000   -0.000000
   -7   -7   -3    2    2   -0.000000   -0.000000
   -7   -7   -2    1    1   -0.000000    0.000000
   -7   -7   -2    2    1   -0.000000   -0.000000
   -7   -7   -2    1    2    0.000001    0.000000
   -7   -7   -2    2    2   -0.000001   -0.000000
   -7   -7   -1    1    1   -0.000000   -0.000000
   -7   -7   -1    2    1    0.000000   -0.000000
   -7   -7   -1    1    2    0.000000    0.000000
   -7   -7   -1    2    2   -0.000000    0.000000
   -7   -7    0    1    1    0.000001   -0.000000
   -7   -7    0    2    1   -0.000000    0.000000
   -7   -7    0    1    2   -0.000000   -0.000000
   -7   -7    0    2    2    0.000001    0.000000
   -7   -7    1    1    1   -0.000001    0.000000
   -7   -7    1    2    1    0.000000    0.000000
   -7   -7    1    1    2    0.000000    0.000000
   -7   -7    1    2    2   -0.000000   -0.000000
   -7   -7    2    1    1   -0.000000    0.000000
   -7   -7    2    2    1    0.000001   -0.000000
   -7   -7    2    1    2   -0.000000    0.000000
   -7   -7    2    2    2   -0.000001   -0.000000
   -7   -7    3    1    1   -0.000000   -0.000000
   -7   -7    3    2    1   -0.000000    0.000000
   -7   -7    3    1    2   -0.000000   -0.000000
   -7   -7    3    2    2   -0.000000    0.000000
   -7   -7    4    1    1   -0.000000   -0.000000
   -7   -7    4    2    1   -0.000000    0.000000
   -7   -7    4    1    2   -0.000000   -0.000000
   -7   -7    4    2    2   -0.000000    0.000000
   -7   -7    5    1    1    0.000000   -0.000000
   -7   -7    5    2    1   -0.000000    0.000000
   -7   -7    5    1    2   -0.000000   -0.000000
   -7   -7    5    2    2    0.000001    0.000000
   -7   -7    6    1    1   -0.000000   -0.000000
   -7   -7    6    2    1   -0.000001    0.000000
   -7   -7    6    1    2   -0.000000   -0.000000
   -7   -7    6    2    2   -0.000000    0.000000
   -7   -7    7    1    1    0.000001   -0.000000
   -7   -7    7    2    1   -0.000000    0.000000
   -7   -7    7    1    2    0.000000    0.000000
   -7   -7    7    2    2    0.000001    0.000000
   -7   -6   -7    1    1   -0.000000   -0.000000
   -7   -6   -7    2    1   -0.000000    0.000000
   -7   -6   -7    1    2   -0.000001   -0.000000
   -7   -6   -7    2    2   -0.000000    0.000000
   -7   -6   -6    1    1    0.000000   -0.000000
   -7   -6   -6    2    1   -0.000000    0.000000
   -7   -6   -6    1    2    0.000000    0.000000
   -7   -6   -6    2    2    0.000000    0.000000
   -7   -6   -5    1    1   -0.000000   -0.000000
   -7   -6   -5    2    1    0.000001   -0.000000
   -7   -6   -5    1    2   -0.000001   -0.000000
   -7   -6   -5    2    2    0.000000    0.000000
   -7   -6   -4    1    1    0.000000    0.000000
   -7   -6   -4    2    1    0.000000   -0.000000
   -7   -6   -4    1    2    0.000000    0.000000
   -7   -6   -4    2    2    0.000000   -0.000000
   -7   -6   -3    1    1   -0.000000    0.000000
   -7   -6   -3    2    1   -0.000000    0.000000
   -7   -6   -3    1    2    0.000000    0.000000
   -7   -6   -3    2    2   -0.000000   -0.000000
   -7   -6   -2    1    1   -0.000000    0.000000
   -7   -6   -2    2    1    0.000001   -0.000000
   -7   -6   -2    1    2   -0.000000    0.000000
   -7   -6   -2    2    2   -0.000000   -0.000000
   -7   -6   -1    1    1    0.000001   -0.000000
   -7   -6   -1    2    1    0.000000   -0.000000
   -7   -6   -1    1    2    0.000000    0.000000
   -7   -6   -1    2    2    0.000001    0.000000
   -7   -6    0    1    1   -0.000001   -0.000000
   -7   -6    0    2    1   -0.000000    0.000000
   -7   -6    0    1    2    0.000001    0.000000
   -7   -6    0    2    2   -0.000000    0.000000
   -7   -6    1    1    1   -0.000001    0.000000
   -7   -6    1    2    1    0.000000   -0.000000
   -7   -6    1    1    2    0.000000    0.000000
   -7   -6    1    2    2   -0.000000   -0.000000
   -7   -6    2    1    1   -0.000000    0.000000
   -7   -6    2    2    1   -0.000000    0.000000
   -7   -6    2    1    2   -0.000001   -0.000000
   -7   -6    2    2    2   -0.000000   -0.000000
   -7   -6    3    1    1    0.000001    0.000000
   -7   -6    3    2    1    0.000000   -0.000000
   -7   -6    3    1    2    0.000000   -0.000000
   -7   -6    3    2    2    0.000001   -0.000000
   -7   -6    4    1    1    0.000001    0.000000
   -7   -6    4    2    1   -0.000000    0.000000
   -7   -6    4    1    2   -0.000000   -0.000000
   -7   -6    4    2    2    0.000001   -0.000000
   -7   -6    5    1    1    0.000001    0.000000
   -7   -6    5    2    1   -0.000000    0.000000
   -7   -6    5    1    2   -0.000000   -0.000000
   -7   -6    5    2    2    0.000000   -0.000000
   -7   -6    6    1    1   -0.000000    0.000000
   -7   -6    6    2    1   -0.000001    0.000000
   -7   -6    6    1    2   -0.000000   -0.000000
   -7   -6    6    2    2   -0.000000   -0.000000
   -7   -6    7    1    1    0.000000   -0.000000
   -7   -6    7    2    1    0.000000   -0.000000
   -7   -6    7    1    2   -0.000000   -0.000000
   -7   -6    7    2    2    0.000000    0.000000
   -7   -5   -7    1    1   -0.000000   -0.000000
   -7   -5   -7    2    1   -0.000000    0.000000
   -7   -5   -7    1    2    0.000000    0.000000
   -7   -5   -7    2    2   -0.000000    0.000000
   -7   -5   -6    1    1    0.000000   -0.000000
   -7   -5   -6    2    1    0.000000   -0.000000
   -7   -5   -6    1    2   -0.000000   -0.000000
   -7   -5   -6    2    2    0.000000    0.000000
   -7   -5   -5    1    1    0.000000   -0.000000
   -7   -5   -5    2    1   -0.000000    0.000000
   -7   -5   -5    1    2    0.000000   -0.000000
   -7   -5   -5    2    2    0.000000    0.000000
   -7   -5   -4    1    1    0.000000    0.000000
   -7   -5   -4    2    1    0.000000   -0.000000
   -7   -5   -4    1    2   -0.000000   -0.000000
   -7   -5   -4    2    2    0.000000   -0.000000
   -7   -5   -3    1    1    0.000000    0.000000
   -7   -5   -3    2    1   -0.000000    0.000000
   -7   -5   -3    1    2   -0.000000   -0.000000
   -7   -5   -3    2    2    0.000000   -0.000000
   -7   -5   -2    1    1   -0.000000    0.000000
   -7   -5   -2    2    1   -0.000000    0.000000
   -7   -5   -2    1    2    0.000001    0.000000
   -7   -5   -2    2    2   -0.000000   -0.000000
   -7   -5   -1    1    1    0.000001    0.000000
   -7   -5   -1    2    1   -0.000001    0.000000
   -7   -5   -1    1    2    0.000000    0.000000
   -7   -5   -1    2    2    0.000001   -0.000000
   -7   -5    0    1    1   -0.000000    0.000000
   -7   -5    0    2    1    0.000000   -0.000000
   -7   -5    0    1    2   -0.000000   -0.000000
   -7   -5    0    2    2   -0.000000   -0.000000
   -7   -5    1    1    1    0.000000    0.000000
   -7   -5    1    2    1    0.000001   -0.000000
   -7   -5    1    1    2    0.000000    0.000000
   -7   -5    1    2    2    0.000000   -0.000000
   -7   -5    2    1    1    0.000000   -0.000000
   -7   -5    2    2    1    0.000000   -0.000000
   -7   -5    2    1    2    0.000000    0.000000
   -7   -5    2    2    2    0.000000    0.000000
   -7   -5    3    1    1    0.000000    0.000000
   -7   -5    3    2    1   -0.000000    0.000000
   -7   -5    3    1    2   -0.000001   -0.000000
   -7   -5    3    2    2    0.000000   -0.000000
   -7   -5    4    1    1    0.000001    0.000000
   -7   -5    4    2    1   -0.000000    0.000000
   -7   -5    4    1    2   -0.000000   -0.000000
   -7   -5    4    2    2    0.000001   -0.000000
   -7   -5    5    1    1    0.000001    0.000000
   -7   -5    5    2    1   -0.000000    0.000000
   -7   -5    5    1    2   -0.000000   -0.000000
   -7   -5    5    2    2    0.000000   -0.000000
   -7   -5    6    1    1    0.000001    0.000000
   -7   -5    6    2    1   -0.000000    0.000000
   -7   -5    6    1    2    0.000000    0.000000
   -7   -5    6    2    2    0.000001   -0.000000
   -7   -4   -7    1    1   -0.000001   -0.000000
   -7   -4   -7    2    1   -0.000000    0.000000
   -7   -4   -7    1    2    0.000000    0.000000
   -7   -4   -7    2    2   -0.000001    0.000000
   -7   -4   -6    1    1    0.000000   -0.000000
   -7   -4   -6    2    1   -0.000000    0.000000
   -7   -4   -6    1    2    0.000000    0.000000
   -7   -4   -6    2    2    0.000000    0.000000
   -7   -4   -5    1    1   -0.000000   -0.000000
   -7   -4   -5    2    1   -0.000000    0.000000
   -7   -4   -5    1    2    0.000000   -0.000000
   -7   -4   -5    2    2   -0.000000    0.000000
   -7   -4   -4    1    1   -0.000001   -0.000000
   -7   -4   -4    2    1   -0.000000    0.000000
   -7   -4   -4    1    2   -0.000000   -0.000000
   -7   -4   -4    2    2   -0.000001    0.000000
   -7   -4   -3    1    1   -0.000000    0.000000
   -7   -4   -3    2    1    0.000000   -0.000000
   -7   -4   -3    1    2    0.000000    0.000000
   -7   -4   -3    2    2   -0.000000   -0.000000
   -7   -4   -2    1    1    0.000000    0.000000
   -7   -4   -2    2    1   -0.000000    0.000000
   -7   -4   -2    1    2   -0.000002   -0.000000
   -7   -4   -2    2    2    0.000000   -0.000000
   -7   -4   -1    1    1   -0.000001    0.000000
   -7   -4   -1    2    1    0.000000   -0.000000
   -7   -4   -1    1    2   -0.000000   -0.000000
   -7   -4   -1    2    2   -0.000001   -0.000000
   -7   -4    0    1    1    0.000000    0.000000
   -7   -4    0    2    1   -0.000001    0.000000
   -7   -4    0    1    2    0.000001    0.000000
   -7   -4    0    2    2    0.000000   -0.000000
   -7   -4    1    1    1    0.000000    0.000000
   -7   -4    1    2    1   -0.000000   -0.000000
   -7   -4    1    1    2   -0.000001   -0.000000
   -7   -4    1    2    2   -0.000000   -0.000000
   -7   -4    2    1    1    0.000000   -0.000000
   -7   -4    2    2    1    0.000000   -0.000000
   -7   -4    2    1    2    0.000000    0.000000
   -7   -4    2    2    2    0.000000    0.000000
   -7   -4    3    1    1    0.000000   -0.000000
   -7   -4    3    2    1    0.000000   -0.000000
   -7   -4    3    1    2    0.000000   -0.000000
   -7   -4    3    2    2    0.000001    0.000000
   -7   -4    4    1    1   -0.000000    0.000000
   -7   -4    4    2    1   -0.000000    0.000000
   -7   -4    4    1    2   -0.000000   -0.000000
   -7   -4    4    2    2   -0.000000   -0.000000
   -7   -4    5    1    1   -0.000000    0.000000
   -7   -4    5    2    1    0.000000    0.000000
   -7   -4    5    1    2   -0.000000    0.000000
   -7   -4    5    2    2   -0.000000   -0.000000
   -7   -3   -7    1    1   -0.000000   -0.000000
   -7   -3   -7    2    1   -0.000000    0.000000
   -7   -3   -7    1    2   -0.000000   -0.000000
   -7   -3   -7    2    2   -0.000000    0.000000
   -7   -3   -6    1    1    0.000000   -0.000000
   -7   -3   -6    2    1    0.000000   -0.000000
   -7   -3   -6    1    2   -0.000000   -0.000000
   -7   -3   -6    2    2    0.000000    0.000000
   -7   -3   -5    1    1   -0.000000   -0.000000
   -7   -3   -5    2    1   -0.000000    0.000000
   -7   -3   -5    1    2    0.000000    0.000000
   -7   -3   -5    2    2   -0.000000    0.000000
   -7   -3   -4    1    1   -0.000000   -0.000000
   -7   -3   -4    2    1    0.000000   -0.000000
   -7   -3   -4    1    2   -0.000000   -0.000000
   -7   -3   -4    2    2   -0.000000    0.000000
   -7   -3   -3    1    1   -0.000001    0.000000
   -7   -3   -3    2    1   -0.000000    0.000000
   -7   -3   -3    1    2    0.000001    0.000000
   -7   -3   -3    2    2   -0.000001   -0.000000
   -7   -3   -2    1    1   -0.000000    0.000000
   -7   -3   -2    2    1   -0.000000    0.000000
   -7   -3   -2    1    2    0.000001    0.000000
   -7   -3   -2    2    2   -0.000001   -0.000000
   -7   -3   -1    1    1    0.000001    0.000000
   -7   -3   -1    2    1   -0.000000    0.000000
   -7   -3   -1    1    2   -0.000001   -0.000000
   -7   -3   -1    2    2    0.000001   -0.000000
   -7   -3    0    1    1    0.000000    0.000000
   -7   -3    0    2    1   -0.000001    0.000000
   -7   -3    0    1    2    0.000001    0.000000
   -7   -3    0    2    2    0.000000   -0.000000
   -7   -3    1    1    1    0.000000    0.000000
   -7   -3    1    2    1    0.000001   -0.000000
   -7   -3    1    1    2    0.000000    0.000000
   -7   -3    1    2    2    0.000000   -0.000000
   -7   -3    2    1    1   -0.000000   -0.000000
   -7   -3    2    2    1   -0.000000    0.000000
   -7   -3    2    1    2   -0.000001   -0.000000
   -7   -3    2    2    2   -0.000000    0.000000
   -7   -3    3    1    1   -0.000000   -0.000000
   -7   -3    3    2    1   -0.000000    0.000000
   -7   -3    3    1    2   -0.000000   -0.000000
   -7   -3    3    2    2   -0.000000    0.000000
   -7   -3    4    1    1    0.000000    0.000000
   -7   -3    4    2    1    0.000001   -0.000000
   -7   -3    4    1    2    0.000000    0.000000
   -7   -3    4    2    2    0.000000   -0.000000
   -7   -2   -7    1    1   -0.000000   -0.000000
   -7   -2   -7    2    1   -0.000000    0.000000
   -7   -2   -7    1    2   -0.000000   -0.000000
   -7   -2   -7    2    2   -0.000000    0.000000
   -7   -2   -6    1    1   -0.000000   -0.000000
   -7   -2   -6    2    1    0.000000    0.000000
   -7   -2   -6    1    2   -0.000000   -0.000000
   -7   -2   -6    2    2   -0.000000    0.000000
   -7   -2   -5    1    1    0.000000   -0.000000
   -7   -2   -5    2    1    0.000000   -0.000000
   -7   -2   -5    1    2   -0.000000   -0.000000
   -7   -2   -5    2    2    0.000000    0.000000
   -7   -2   -4    1    1   -0.000001    0.000000
   -7   -2   -4    2    1   -0.000000    0.000000
   -7   -2   -4    1    2    0.000001    0.000000
   -7   -2   -4    2    2   -0.000001   -0.000000
   -7   -2   -3    1    1    0.000001    0.000000
   -7   -2   -3    2    1   -0.000000    0.000000
   -7   -2   -3    1    2    0.000003    0.000000
   -7   -2   -3    2    2    0.000001   -0.000000
   -7   -2   -2    1    1   -0.000000    0.000000
   -7   -2   -2    2    1   -0.000000    0.000000
   -7   -2   -2    1    2    0.000001    0.000000
   -7   -2   -2    2    2   -0.000001   -0.000000
   -7   -2   -1    1    1   -0.000001    0.000000
   -7   -2   -1    2    1    0.000000    0.000000
   -7   -2   -1    1    2   -0.000000   -0.000000
   -7   -2   -1    2    2   -0.000001   -0.000000
   -7   -2    0    1    1   -0.000000    0.000000
   -7   -2    0    2    1    0.000000   -0.000000
[...]
    9    0    6    2    1   -0.000000    0.000000
    9    0    6    1    2   -0.000000    0.000000
    9    0    6    2    2   -0.000000    0.000000
    9    0    7    1    1   -0.000000    0.000000
    9    0    7    2    1   -0.000000    0.000000
    9    0    7    1    2   -0.000000   -0.000000
    9    0    7    2    2   -0.000000   -0.000000
    9    1    2    1    1   -0.000000   -0.000000
    9    1    2    2    1    0.000001   -0.000000
    9    1    2    1    2    0.000000    0.000000
    9    1    2    2    2    0.000000    0.000000
    9    1    3    1    1   -0.000000    0.000000
    9    1    3    2    1   -0.000001    0.000000
    9    1    3    1    2    0.000000    0.000000
    9    1    3    2    2   -0.000000   -0.000000
    9    1    4    1    1    0.000000    0.000000
    9    1    4    2    1   -0.000000    0.000000
    9    1    4    1    2    0.000000    0.000000
    9    1    4    2    2    0.000000   -0.000000
    9    1    5    1    1    0.000000   -0.000000
    9    1    5    2    1   -0.000000   -0.000000
    9    1    5    1    2    0.000000    0.000000
    9    1    5    2    2    0.000000    0.000000
    9    1    6    1    1    0.000001   -0.000000
    9    1    6    2    1    0.000000   -0.000000
    9    1    6    1    2    0.000000    0.000000
    9    1    6    2    2    0.000001    0.000000
    9    1    7    1    1    0.000000    0.000000
    9    1    7    2    1    0.000000   -0.000000
    9    1    7    1    2   -0.000000   -0.000000
    9    1    7    2    2    0.000000   -0.000000
    9    2    1    1    1    0.000002   -0.000000
    9    2    1    2    1   -0.000001    0.000000
    9    2    1    1    2   -0.000002   -0.000000
    9    2    1    2    2    0.000002    0.000000
    9    2    2    1    1   -0.000001    0.000000
    9    2    2    2    1    0.000001   -0.000000
    9    2    2    1    2    0.000001    0.000000
    9    2    2    2    2   -0.000000   -0.000000
    9    2    3    1    1    0.000000    0.000000
    9    2    3    2    1   -0.000000    0.000000
    9    2    3    1    2   -0.000000   -0.000000
    9    2    3    2    2   -0.000000   -0.000000
    9    2    4    1    1    0.000000   -0.000000
    9    2    4    2    1    0.000000   -0.000000
    9    2    4    1    2   -0.000000   -0.000000
    9    2    4    2    2   -0.000000    0.000000
    9    2    5    1    1   -0.000000   -0.000000
    9    2    5    2    1    0.000001   -0.000000
    9    2    5    1    2   -0.000000   -0.000000
    9    2    5    2    2   -0.000000    0.000000
    9    2    6    1    1    0.000001   -0.000000
    9    2    6    2    1    0.000000   -0.000000
    9    2    6    1    2    0.000000    0.000000
    9    2    6    2    2    0.000001    0.000000
    9    2    7    1    1   -0.000000    0.000000
    9    2    7    2    1   -0.000000    0.000000
    9    2    7    1    2   -0.000000   -0.000000
    9    2    7    2    2   -0.000000   -0.000000
    9    3    0    1    1   -0.000000    0.000000
    9    3    0    2    1   -0.000000    0.000000
    9    3    0    1    2   -0.000001   -0.000000
    9    3    0    2    2   -0.000001   -0.000000
    9    3    1    1    1    0.000001   -0.000000
    9    3    1    2    1    0.000000   -0.000000
    9    3    1    1    2   -0.000001   -0.000000
    9    3    1    2    2    0.000000    0.000000
    9    3    2    1    1    0.000000    0.000000
    9    3    2    2    1   -0.000001    0.000000
    9    3    2    1    2    0.000000    0.000000
    9    3    2    2    2    0.000000   -0.000000
    9    3    3    1    1   -0.000001    0.000000
    9    3    3    2    1   -0.000000    0.000000
    9    3    3    1    2    0.000000    0.000000
    9    3    3    2    2   -0.000001   -0.000000
    9    3    4    1    1    0.000000   -0.000000
    9    3    4    2    1    0.000000   -0.000000
    9    3    4    1    2   -0.000000   -0.000000
    9    3    4    2    2    0.000000    0.000000
    9    3    5    1    1    0.000000   -0.000000
    9    3    5    2    1   -0.000000   -0.000000
    9    3    5    1    2    0.000000    0.000000
    9    3    5    2    2    0.000000    0.000000
    9    3    6    1    1   -0.000000    0.000000
    9    3    6    2    1   -0.000000    0.000000
    9    3    6    1    2   -0.000000   -0.000000
    9    3    6    2    2   -0.000000   -0.000000
    9    3    7    1    1    0.000000    0.000000
    9    3    7    2    1   -0.000000    0.000000
    9    3    7    1    2   -0.000000   -0.000000
    9    3    7    2    2    0.000000   -0.000000
    9    4   -1    1    1    0.000001    0.000000
    9    4   -1    2    1    0.000000    0.000000
    9    4   -1    1    2    0.000000    0.000000
    9    4   -1    2    2    0.000000   -0.000000
    9    4    0    1    1    0.000001    0.000000
    9    4    0    2    1    0.000000   -0.000000
    9    4    0    1    2   -0.000000   -0.000000
    9    4    0    2    2    0.000001   -0.000000
    9    4    1    1    1   -0.000001   -0.000000
    9    4    1    2    1   -0.000000    0.000000
    9    4    1    1    2    0.000000   -0.000000
    9    4    1    2    2   -0.000001    0.000000
    9    4    2    1    1    0.000000   -0.000000
    9    4    2    2    1   -0.000001    0.000000
    9    4    2    1    2    0.000000    0.000000
    9    4    2    2    2    0.000000    0.000000
    9    4    3    1    1   -0.000000   -0.000000
    9    4    3    2    1   -0.000000    0.000000
    9    4    3    1    2   -0.000000   -0.000000
    9    4    3    2    2   -0.000000    0.000000
    9    4    4    1    1    0.000000   -0.000000
    9    4    4    2    1   -0.000000    0.000000
    9    4    4    1    2    0.000000    0.000000
    9    4    4    2    2    0.000000    0.000000
    9    4    5    1    1   -0.000000    0.000000
    9    4    5    2    1    0.000000   -0.000000
    9    4    5    1    2    0.000000    0.000000
    9    4    5    2    2    0.000000   -0.000000
    9    4    6    1    1    0.000000    0.000000
    9    4    6    2    1   -0.000000    0.000000
    9    4    6    1    2   -0.000000   -0.000000
    9    4    6    2    2    0.000000   -0.000000
    9    4    7    1    1    0.000000    0.000000
    9    4    7    2    1   -0.000000    0.000000
    9    4    7    1    2    0.000000    0.000000
    9    4    7    2    2    0.000000   -0.000000
    9    5   -2    1    1   -0.000000    0.000000
    9    5   -2    2    1   -0.000001    0.000000
    9    5   -2    1    2    0.000001    0.000000
    9    5   -2    2    2   -0.000000   -0.000000
    9    5   -1    1    1    0.000000    0.000000
    9    5   -1    2    1   -0.000001    0.000000
    9    5   -1    1    2    0.000000    0.000000
    9    5   -1    2    2    0.000000   -0.000000
    9    5    0    1    1    0.000001   -0.000000
    9    5    0    2    1    0.000000   -0.000000
    9    5    0    1    2   -0.000000   -0.000000
    9    5    0    2    2    0.000001    0.000000
    9    5    1    1    1    0.000001   -0.000000
    9    5    1    2    1    0.000000   -0.000000
    9    5    1    1    2   -0.000001   -0.000000
    9    5    1    2    2    0.000000    0.000000
    9    5    2    1    1   -0.000000   -0.000000
    9    5    2    2    1    0.000001   -0.000000
    9    5    2    1    2    0.000001    0.000000
    9    5    2    2    2   -0.000001    0.000000
    9    5    3    1    1   -0.000000   -0.000000
    9    5    3    2    1   -0.000001    0.000000
    9    5    3    1    2    0.000000    0.000000
    9    5    3    2    2   -0.000000    0.000000
    9    5    4    1    1    0.000001   -0.000000
    9    5    4    2    1    0.000000   -0.000000
    9    5    4    1    2   -0.000001   -0.000000
    9    5    4    2    2    0.000001    0.000000
    9    5    5    1    1    0.000000   -0.000000
    9    5    5    2    1   -0.000000    0.000000
    9    5    5    1    2   -0.000000   -0.000000
    9    5    5    2    2    0.000000    0.000000
    9    5    6    1    1    0.000000    0.000000
    9    5    6    2    1    0.000000    0.000000
    9    5    6    1    2   -0.000000   -0.000000
    9    5    6    2    2    0.000001   -0.000000
    9    5    7    1    1   -0.000000    0.000000
    9    5    7    2    1   -0.000000    0.000000
    9    5    7    1    2   -0.000000   -0.000000
    9    5    7    2    2    0.000000   -0.000000
    9    6   -3    1    1   -0.000001   -0.000000
    9    6   -3    2    1   -0.000001    0.000000
    9    6   -3    1    2    0.000001    0.000000
    9    6   -3    2    2   -0.000001    0.000000
    9    6   -2    1    1   -0.000000    0.000000
    9    6   -2    2    1   -0.000001    0.000000
    9    6   -2    1    2    0.000001    0.000000
    9    6   -2    2    2   -0.000000   -0.000000
    9    6   -1    1    1    0.000001   -0.000000
    9    6   -1    2    1    0.000000   -0.000000
    9    6   -1    1    2    0.000000    0.000000
    9    6   -1    2    2    0.000000    0.000000
    9    6    0    1    1   -0.000001   -0.000000
    9    6    0    2    1   -0.000000    0.000000
    9    6    0    1    2   -0.000001   -0.000000
    9    6    0    2    2   -0.000001    0.000000
    9    6    1    1    1    0.000002   -0.000000
    9    6    1    2    1   -0.000001    0.000000
    9    6    1    1    2   -0.000002   -0.000000
    9    6    1    2    2    0.000002    0.000000
    9    6    2    1    1    0.000000   -0.000000
    9    6    2    2    1    0.000001   -0.000000
    9    6    2    1    2    0.000000    0.000000
    9    6    2    2    2   -0.000000    0.000000
    9    6    3    1    1    0.000000   -0.000000
    9    6    3    2    1    0.000000   -0.000000
    9    6    3    1    2   -0.000000   -0.000000
    9    6    3    2    2   -0.000000    0.000000
    9    6    4    1    1   -0.000000   -0.000000
    9    6    4    2    1    0.000000   -0.000000
    9    6    4    1    2    0.000000    0.000000
    9    6    4    2    2   -0.000000    0.000000
    9    6    5    1    1    0.000000   -0.000000
    9    6    5    2    1   -0.000001    0.000000
    9    6    5    1    2    0.000000    0.000000
    9    6    5    2    2    0.000000    0.000000
    9    6    6    1    1    0.000001   -0.000000
    9    6    6    2    1   -0.000000    0.000000
    9    6    6    1    2   -0.000000   -0.000000
    9    6    6    2    2    0.000001    0.000000
    9    6    7    1    1    0.000000    0.000000
    9    6    7    2    1   -0.000000    0.000000
    9    6    7    1    2   -0.000000   -0.000000
    9    6    7    2    2    0.000000   -0.000000
   10   -2    7    1    1    0.000000    0.000000
   10   -2    7    2    1    0.000001   -0.000000
   10   -2    7    1    2    0.000001    0.000000
   10   -2    7    2    2    0.000000   -0.000000
   10   -1    6    1    1    0.000001    0.000000
   10   -1    6    2    1   -0.000001    0.000000
   10   -1    6    1    2    0.000000    0.000000
   10   -1    6    2    2    0.000001   -0.000000
   10   -1    7    1    1   -0.000001   -0.000000
   10   -1    7    2    1    0.000000   -0.000000
   10   -1    7    1    2    0.000001    0.000000
   10   -1    7    2    2   -0.000001    0.000000
   10    0    5    1    1    0.000000    0.000000
   10    0    5    2    1   -0.000001    0.000000
   10    0    5    1    2    0.000000    0.000000
   10    0    5    2    2    0.000000   -0.000000
   10    0    6    1    1    0.000000   -0.000000
   10    0    6    2    1    0.000000   -0.000000
   10    0    6    1    2    0.000000    0.000000
   10    0    6    2    2    0.000000    0.000000
   10    0    7    1    1    0.000000   -0.000000
   10    0    7    2    1   -0.000000    0.000000
   10    0    7    1    2   -0.000000   -0.000000
   10    0    7    2    2    0.000000    0.000000
   10    1    4    1    1   -0.000000    0.000000
   10    1    4    2    1    0.000000   -0.000000
   10    1    4    1    2    0.000001    0.000000
   10    1    4    2    2   -0.000000   -0.000000
   10    1    5    1    1   -0.000000   -0.000000
   10    1    5    2    1    0.000001   -0.000000
   10    1    5    1    2   -0.000000   -0.000000
   10    1    5    2    2   -0.000000    0.000000
   10    1    6    1    1    0.000000   -0.000000
   10    1    6    2    1    0.000000   -0.000000
   10    1    6    1    2   -0.000000   -0.000000
   10    1    6    2    2    0.000000    0.000000
   10    1    7    1    1    0.000000   -0.000000
   10    1    7    2    1   -0.000000    0.000000
   10    1    7    1    2    0.000001    0.000000
   10    1    7    2    2    0.000000    0.000000
   10    2    3    1    1   -0.000000    0.000000
   10    2    3    2    1   -0.000001    0.000000
   10    2    3    1    2    0.000001    0.000000
   10    2    3    2    2   -0.000000   -0.000000
   10    2    4    1    1    0.000000    0.000000
   10    2    4    2    1   -0.000001    0.000000
   10    2    4    1    2    0.000000    0.000000
   10    2    4    2    2    0.000000   -0.000000
   10    2    5    1    1    0.000000   -0.000000
   10    2    5    2    1   -0.000000   -0.000000
   10    2    5    1    2   -0.000000   -0.000000
   10    2    5    2    2   -0.000000    0.000000
   10    2    6    1    1   -0.000000   -0.000000
   10    2    6    2    1   -0.000000   -0.000000
   10    2    6    1    2    0.000000    0.000000
   10    2    6    2    2   -0.000000    0.000000
   10    2    7    1    1    0.000000   -0.000000
   10    2    7    2    1   -0.000000    0.000000
   10    2    7    1    2    0.000001    0.000000
   10    2    7    2    2    0.000000    0.000000
   10    3    2    1    1    0.000000   -0.000000
   10    3    2    2    1    0.000001   -0.000000
   10    3    2    1    2   -0.000000   -0.000000
   10    3    2    2    2    0.000000    0.000000
   10    3    3    1    1   -0.000000    0.000000
   10    3    3    2    1    0.000000   -0.000000
   10    3    3    1    2   -0.000001   -0.000000
   10    3    3    2    2   -0.000000   -0.000000
   10    3    4    1    1    0.000001    0.000000
   10    3    4    2    1    0.000000   -0.000000
   10    3    4    1    2   -0.000000   -0.000000
   10    3    4    2    2    0.000001   -0.000000
   10    3    5    1    1   -0.000000   -0.000000
   10    3    5    2    1   -0.000000   -0.000000
   10    3    5    1    2   -0.000000   -0.000000
   10    3    5    2    2   -0.000000    0.000000
   10    3    6    1    1    0.000000   -0.000000
   10    3    6    2    1    0.000000   -0.000000
   10    3    6    1    2   -0.000000   -0.000000
   10    3    6    2    2    0.000000    0.000000
   10    3    7    1    1    0.000000    0.000000
   10    3    7    2    1   -0.000000    0.000000
   10    3    7    1    2   -0.000000   -0.000000
   10    3    7    2    2    0.000000   -0.000000
   10    4    1    1    1    0.000001   -0.000000
   10    4    1    2    1    0.000001   -0.000000
   10    4    1    1    2    0.000001    0.000000
   10    4    1    2    2    0.000001    0.000000
   10    4    2    1    1   -0.000000   -0.000000
   10    4    2    2    1    0.000000   -0.000000
   10    4    2    1    2   -0.000000   -0.000000
   10    4    2    2    2   -0.000000    0.000000
   10    4    3    1    1   -0.000000    0.000000
   10    4    3    2    1    0.000000   -0.000000
   10    4    3    1    2   -0.000001   -0.000000
   10    4    3    2    2   -0.000000   -0.000000
   10    4    4    1    1    0.000000    0.000000
   10    4    4    2    1   -0.000001    0.000000
   10    4    4    1    2    0.000000    0.000000
   10    4    4    2    2    0.000000   -0.000000
   10    4    5    1    1   -0.000000   -0.000000
   10    4    5    2    1    0.000001   -0.000000
   10    4    5    1    2   -0.000000   -0.000000
   10    4    5    2    2   -0.000000    0.000000
   10    4    6    1    1    0.000000    0.000000
   10    4    6    2    1    0.000000   -0.000000
   10    4    6    1    2    0.000000    0.000000
   10    4    6    2    2    0.000000   -0.000000
   10    4    7    1    1   -0.000001    0.000000
   10    4    7    2    1    0.000000   -0.000000
   10    4    7    1    2    0.000001    0.000000
   10    4    7    2    2   -0.000001   -0.000000
   10    5    0    1    1   -0.000002    0.000000
   10    5    0    2    1   -0.000001    0.000000
   10    5    0    1    2   -0.000000   -0.000000
   10    5    0    2    2   -0.000002   -0.000000
   10    5    1    1    1    0.000001   -0.000000
   10    5    1    2    1    0.000001   -0.000000
   10    5    1    1    2    0.000001    0.000000
   10    5    1    2    2    0.000001    0.000000
   10    5    2    1    1    0.000000   -0.000000
   10    5    2    2    1    0.000001   -0.000000
   10    5    2    1    2   -0.000000   -0.000000
   10    5    2    2    2    0.000000    0.000000
   10    5    3    1    1   -0.000000   -0.000000
   10    5    3    2    1   -0.000001    0.000000
   10    5    3    1    2    0.000001    0.000000
   10    5    3    2    2   -0.000000    0.000000
   10    5    4    1    1   -0.000000   -0.000000
   10    5    4    2    1    0.000000   -0.000000
   10    5    4    1    2    0.000001    0.000000
   10    5    4    2    2   -0.000000    0.000000
   10    5    5    1    1   -0.000000   -0.000000
   10    5    5    2    1   -0.000001    0.000000
   10    5    5    1    2    0.000000    0.000000
   10    5    5    2    2    0.000000    0.000000
   10    5    6    1    1    0.000001   -0.000000
   10    5    6    2    1   -0.000001    0.000000
   10    5    6    1    2    0.000000    0.000000
   10    5    6    2    2    0.000001    0.000000
   10    5    7    1    1    0.000000    0.000000
   10    5    7    2    1    0.000001   -0.000000
   10    5    7    1    2    0.000001    0.000000
   10    5    7    2    2    0.000000   -0.000000
   11    1    6    1    1    0.000000   -0.000000
   11    1    6    2    1    0.000000   -0.000000
   11    1    6    1    2   -0.000000   -0.000000
   11    1    6    2    2    0.000000    0.000000
   11    2    5    1    1    0.000001    0.000000
   11    2    5    2    1    0.000001   -0.000000
   11    2    5    1    2   -0.000000   -0.000000
   11    2    5    2    2    0.000001   -0.000000
   11    2    6    1    1   -0.000001   -0.000000
   11    2    6    2    1    0.000000   -0.000000
   11    2    6    1    2    0.000000    0.000000
   11    2    6    2    2   -0.000001    0.000000
   11    3    4    1    1   -0.000001    0.000000
   11    3    4    2    1    0.000001   -0.000000
   11    3    4    1    2   -0.000000   -0.000000
   11    3    4    2    2   -0.000000   -0.000000
   11    3    5    1    1    0.000000    0.000000
   11    3    5    2    1    0.000000   -0.000000
   11    3    5    1    2    0.000000    0.000000
   11    3    5    2    2    0.000000   -0.000000
   11    3    6    1    1   -0.000001   -0.000000
   11    3    6    2    1    0.000000   -0.000000
   11    3    6    1    2    0.000000    0.000000
   11    3    6    2    2   -0.000001    0.000000
   11    4    3    1    1   -0.000002   -0.000000
   11    4    3    2    1    0.000001   -0.000000
   11    4    3    1    2    0.000000    0.000000
   11    4    3    2    2   -0.000001    0.000000
   11    4    4    1    1   -0.000000    0.000000
   11    4    4    2    1    0.000001   -0.000000
   11    4    4    1    2   -0.000000   -0.000000
   11    4    4    2    2   -0.000000   -0.000000
   11    4    5    1    1    0.000001    0.000000
   11    4    5    2    1    0.000001   -0.000000
   11    4    5    1    2   -0.000000   -0.000000
   11    4    5    2    2    0.000001   -0.000000
   11    4    6    1    1    0.000000    0.000000
   11    4    6    2    1    0.000000   -0.000000
   11    4    6    1    2   -0.000000   -0.000000
   11    4    6    2    2    0.000000   -0.000000
   12    3    6    1    1    0.000000    0.000000
   12    3    6    2    1   -0.000001    0.000000
   12    3    6    1    2    0.000001    0.000000
   12    3    6    2    2    0.000000   -0.000000
