 
             +---------------------------------------------------+
             |                                                   |
             |                   WANNIER90                       |
             |                                                   |
             +---------------------------------------------------+
             |                                                   |
             |        Welcome to the Maximally-Localized         |
             |        Generalized Wannier Functions code         |
             |            http://www.wannier.org                 |
             |                                                   |
             |  Wannier90 Authors:                               |
             |    Arash A. Mostofi   (Imperial College London)   |
             |    Jonathan R. Yates  (University of Oxford)      |
             |    Young-Su Lee       (KIST, S. Korea)            |
             |                                                   |
             |  Wannier90 Contributors:                          |
             |    Matthew Shelley    (Imperial College London)   |
             |    Nicolas Poilvert   (MIT)                       |
             |                                                   |
             |  Wannier77 Authors:                               |
             |    Nicola Marzari     (University of Oxford)      |
             |    Ivo Souza          (UC Berkeley)               |
             |    David Vanderbilt   (Rutgers University)        |
             |                                                   |
             |  Please cite                                      |
             |                                                   |
             |  [ref] "Wannier90: A Tool for Obtaining Maximally |
             |         Localised Wannier Functions"              |
             |        A. A. Mostofi, J. R. Yates, Y.-S. Lee,     |
             |        I. Souza, D. Vanderbilt and N. Marzari     |
             |        Comput. Phys. Commun. 178, 685 (2008)      |
             |                                                   |
             |  in any publications arising from the use of      |
             |  this code. For the method please cite            |
             |                                                   |
             |  [ref] "Maximally Localized Generalised Wannier   |
             |         Functions for Composite Energy Bands"     |
             |         N. Marzari and D. Vanderbilt              |
             |         Phys. Rev. B 56 12847 (1997)              |
             |                                                   |
             |  [ref] "Maximally Localized Wannier Functions     |
             |         for Entangled Energy Bands"               |
             |         I. Souza, N. Marzari and D. Vanderbilt    |
             |         Phys. Rev. B 65 035109 (2001)             |
             |                                                   |
             |                                                   |
             | Copyright (c) 1996-2010                           |
             |        A. A. Mostofi, J. R. Yates, Y.-S. Lee,     |
             |        I. Souza, D. Vanderbilt and N. Marzari     |
             |                                                   |
             |        Release: 1.2        24th Jan 2010          |
             |                                                   |
             | This program is free software; you can            |
             | redistribute it and/or modify it under the terms  |
             | of the GNU General Public License as published by |
             | the Free Software Foundation; either version 2 of |
             | the License, or (at your option) any later version|
             |                                                   |
             | This program is distributed in the hope that it   |
             | will be useful, but WITHOUT ANY WARRANTY; without |
             | even the implied warranty of MERCHANTABILITY or   |
             | FITNESS FOR A PARTICULAR PURPOSE. See the GNU     |
             | General Public License for more details.          |
             |                                                   |
             | You should have received a copy of the GNU General|
             | Public License along with this program; if not,   |
             | write to the Free Software Foundation, Inc.,      |
             | 675 Mass Ave, Cambridge, MA 02139, USA.           |
             |                                                   |
             +---------------------------------------------------+
             |    Execution started on 13Jul2024 at 17:22:37     |
             +---------------------------------------------------+

 Wannier90 is running in LIBRARY MODE

 Setting up k-point neighbours...

 
                                    ------
                                    SYSTEM
                                    ------
 
                              Lattice Vectors (Ang)
                    a_1     6.130326   3.539345   0.000000
                    a_2    -6.130326   3.539345   0.000000
                    a_3    -4.086884   0.000000  12.985664
 
                   Unit Cell Volume:     563.50871  (Ang^3)
 
                        Reciprocal-Space Vectors (Ang^-1)
                    b_1     0.512467   0.887620   0.161285
                    b_2    -0.512467   0.887620  -0.161285
                    b_3     0.000000   0.000000   0.483856
  
 *----------------------------------------------------------------------------*
 |   Site       Fractional Coordinate          Cartesian Coordinate (Ang)     |
 +----------------------------------------------------------------------------+
 | Nb   1   0.14375   0.44859   0.24657   |   -2.87647   2.09650   3.20188    |
 | Nb   2   0.55141   0.85625   0.24657   |   -2.87647   4.98219   3.20188    |
 | Nb   3   0.55141   0.44859   0.24657   |   -0.37738   3.53935   3.20188    |
 | Nb   4   0.85625   0.55141   0.75343   |   -1.21041   4.98219   9.78379    |
 | Nb   5   0.44859   0.14375   0.75343   |   -1.21041   2.09650   9.78379    |
 | Nb   6   0.44859   0.55141   0.75343   |   -3.70950   3.53935   9.78379    |
 | Br   1   0.70633   0.79327   0.61939   |   -3.06435   5.30760   8.04319    |
 | Br   2   0.70633   0.29367   0.61939   |   -0.00163   3.53935   8.04319    |
 | Br   3   0.20673   0.29367   0.61939   |   -3.06435   1.77109   8.04319    |
 | Br   4   0.29367   0.20673   0.38061   |   -1.02254   1.77109   4.94247    |
 | Br   5   0.29367   0.70633   0.38061   |   -4.08525   3.53935   4.94247    |
 | Br   6   0.79327   0.70633   0.38061   |   -1.02254   5.30760   4.94247    |
 | Br   7   0.11836   0.37274   0.86398   |   -5.09042   1.73817  11.21935    |
 | Br   8   0.11836   0.88164   0.86398   |   -8.21014   3.53935  11.21935    |
 | Br   9   0.62726   0.88164   0.86398   |   -5.09042   5.34052  11.21935    |
 | Br  10   0.88164   0.62726   0.13602   |    1.00353   5.34052   1.76631    |
 | Br  11   0.88164   0.11836   0.13602   |    4.12326   3.53935   1.76631    |
 | Br  12   0.37274   0.11836   0.13602   |    1.00353   1.73817   1.76631    |
 | Br  13   0.21495   0.78505   0.64486   |   -6.13033   3.53935   8.37394    |
 | Br  14   0.78505   0.21495   0.35514   |    2.04344   3.53935   4.61173    |
 | Br  15   0.63469   0.36531   0.90406   |   -2.04344   3.53935  11.73982    |
 | Br  16   0.36531   0.63469   0.09594   |   -2.04344   3.53935   1.24584    |
 *----------------------------------------------------------------------------*
  
                                ------------
                                K-POINT GRID
                                ------------
  
             Grid size = 15 x 15 x 15      Total points = 3375
  
  
 *---------------------------------- MAIN ------------------------------------*
 |  Number of Wannier Functions               :               128             |
 |  Number of input Bloch states              :               128             |
 |  Output verbosity (1=low, 5=high)          :                 1             |
 |  Timing Level (1=low, 5=high)              :                 1             |
 |  Optimisation (0=memory, 3=speed)          :                 3             |
 |  Length Unit                               :               Ang             |
 |  Post-processing setup (write *.nnkp)      :                 F             |
 |  Using Gamma-only branch of algorithms     :                 F             |
 *----------------------------------------------------------------------------*
 *------------------------------- WANNIERISE ---------------------------------*
 |  Total number of iterations                :               100             |
 |  Number of CG steps before reset           :                 5             |
 |  Trial step length for line search         :             2.000             |
 |  Convergence tolerence                     :         0.100E-09             |
 |  Convergence window                        :                -1             |
 |  Iterations between writing output         :                 1             |
 |  Iterations between backing up to disk     :               100             |
 |  Write r^2_nm to file                      :                 F             |
 |  Write xyz WF centres to file              :                 F             |
 |  Use guiding centre to control phases      :                 F             |
 *----------------------------------------------------------------------------*
 Time to read parameters        0.000 (sec)

 *---------------------------------- K-MESH ----------------------------------*
 +----------------------------------------------------------------------------+
 |                    Distance to Nearest-Neighbour Shells                    |
 |                    ------------------------------------                    |
 |          Shell             Distance (Ang^-1)          Multiplicity         |
 |          -----             -----------------          ------------         |
 |             1                   0.032257                      2            |
 |             2                   0.064514                      2            |
 |             3                   0.069170                      6            |
 |             4                   0.071633                      6            |
 |             5                   0.080738                      6            |
 |             6                   0.086944                      6            |
 |             7                   0.096771                      2            |
 |             8                   0.101656                      6            |
 |             9                   0.109855                      6            |
 |            10                   0.118349                      6            |
 |            11                   0.122667                     12            |
 |            12                   0.127398                      6            |
 +----------------------------------------------------------------------------+
 | The b-vectors are chosen automatically                                     |
 | The following shells are used:   1,  3                                     |
 +----------------------------------------------------------------------------+
 |                        Shell   # Nearest-Neighbours                        |
 |                        -----   --------------------                        |
 |                          1               2                                 |
 |                          3               6                                 |
 +----------------------------------------------------------------------------+
 | Completeness relation is fully satisfied [Eq. (B1), PRB 56, 12847 (1997)]  |
 +----------------------------------------------------------------------------+
 |                  b_k Vectors (Ang^-1) and Weights (Ang^2)                  |
 |                  ----------------------------------------                  |
 |            No.         b_k(x)      b_k(y)      b_k(z)        w_b           |
 |            ---        --------------------------------     --------        |
 |             1         0.000000    0.000000    0.032257   456.732295        |
 |             2         0.000000    0.000000   -0.032257   456.732295        |
 |             3         0.034164    0.059175    0.010752    71.395137        |
 |             4        -0.034164   -0.059175   -0.010752    71.395137        |
 |             5         0.034164   -0.059175    0.010752    71.395137        |
 |             6        -0.034164    0.059175   -0.010752    71.395137        |
 |             7        -0.068329    0.000000    0.010752    71.395137        |
 |             8         0.068329    0.000000   -0.010752    71.395137        |
 +----------------------------------------------------------------------------+
 |                           b_k Directions (Ang^-1)                          |
 |                           -----------------------                          |
 |            No.           x           y           z                         |
 |            ---        --------------------------------                     |
 |             1         0.000000    0.000000    0.032257                     |
 |             2         0.034164    0.059175    0.010752                     |
 |             3         0.034164   -0.059175    0.010752                     |
 |             4        -0.068329    0.000000    0.010752                     |
 +----------------------------------------------------------------------------+
  
 Time to write kmesh            0.565 (sec)

 Finished setting up k-point neighbours.

 Returning to pw2wannier90 at 17:22:38 
 
             +---------------------------------------------------+
             |                                                   |
             |                   WANNIER90                       |
             |                                                   |
             +---------------------------------------------------+
             |                                                   |
             |        Welcome to the Maximally-Localized         |
             |        Generalized Wannier Functions code         |
             |            http://www.wannier.org                 |
             |                                                   |
             |  Wannier90 Authors:                               |
             |    Arash A. Mostofi   (Imperial College London)   |
             |    Jonathan R. Yates  (University of Oxford)      |
             |    Young-Su Lee       (KIST, S. Korea)            |
             |                                                   |
             |  Wannier90 Contributors:                          |
             |    Matthew Shelley    (Imperial College London)   |
             |    Nicolas Poilvert   (MIT)                       |
             |                                                   |
             |  Wannier77 Authors:                               |
             |    Nicola Marzari     (University of Oxford)      |
             |    Ivo Souza          (UC Berkeley)               |
             |    David Vanderbilt   (Rutgers University)        |
             |                                                   |
             |  Please cite                                      |
             |                                                   |
             |  [ref] "Wannier90: A Tool for Obtaining Maximally |
             |         Localised Wannier Functions"              |
             |        A. A. Mostofi, J. R. Yates, Y.-S. Lee,     |
             |        I. Souza, D. Vanderbilt and N. Marzari     |
             |        Comput. Phys. Commun. 178, 685 (2008)      |
             |                                                   |
             |  in any publications arising from the use of      |
             |  this code. For the method please cite            |
             |                                                   |
             |  [ref] "Maximally Localized Generalised Wannier   |
             |         Functions for Composite Energy Bands"     |
             |         N. Marzari and D. Vanderbilt              |
             |         Phys. Rev. B 56 12847 (1997)              |
             |                                                   |
             |  [ref] "Maximally Localized Wannier Functions     |
             |         for Entangled Energy Bands"               |
             |         I. Souza, N. Marzari and D. Vanderbilt    |
             |         Phys. Rev. B 65 035109 (2001)             |
             |                                                   |
             |                                                   |
             | Copyright (c) 1996-2010                           |
             |        A. A. Mostofi, J. R. Yates, Y.-S. Lee,     |
             |        I. Souza, D. Vanderbilt and N. Marzari     |
             |                                                   |
             |        Release: 1.2        24th Jan 2010          |
             |                                                   |
             | This program is free software; you can            |
             | redistribute it and/or modify it under the terms  |
             | of the GNU General Public License as published by |
             | the Free Software Foundation; either version 2 of |
             | the License, or (at your option) any later version|
             |                                                   |
             | This program is distributed in the hope that it   |
             | will be useful, but WITHOUT ANY WARRANTY; without |
             | even the implied warranty of MERCHANTABILITY or   |
             | FITNESS FOR A PARTICULAR PURPOSE. See the GNU     |
             | General Public License for more details.          |
             |                                                   |
             | You should have received a copy of the GNU General|
             | Public License along with this program; if not,   |
             | write to the Free Software Foundation, Inc.,      |
             | 675 Mass Ave, Cambridge, MA 02139, USA.           |
             |                                                   |
             +---------------------------------------------------+
             |    Execution started on 13Jul2024 at 19:10:25     |
             +---------------------------------------------------+

 Wannier90 is running in LIBRARY MODE

 Setting up k-point neighbours...

 Ignoring <mp_grid> in input file
 Ignoring <unit_cell_cart> in input file
 Ignoring <kpoints> in input file
 Ignoring <atoms_cart> in input file
 
                                    ------
                                    SYSTEM
                                    ------
 
                              Lattice Vectors (Ang)
                    a_1     6.130326   3.539345   0.000000
                    a_2    -6.130326   3.539345   0.000000
                    a_3    -4.086884   0.000000  12.985664
 
                   Unit Cell Volume:     563.50871  (Ang^3)
 
                        Reciprocal-Space Vectors (Ang^-1)
                    b_1     0.512467   0.887620   0.161285
                    b_2    -0.512467   0.887620  -0.161285
                    b_3     0.000000   0.000000   0.483856
  
 *----------------------------------------------------------------------------*
 |   Site       Fractional Coordinate          Cartesian Coordinate (Ang)     |
 +----------------------------------------------------------------------------+
 | Nb   1   0.14375   0.44859   0.24657   |   -2.87647   2.09650   3.20188    |
 | Nb   2   0.55141   0.85625   0.24657   |   -2.87647   4.98219   3.20188    |
 | Nb   3   0.55141   0.44859   0.24657   |   -0.37738   3.53935   3.20188    |
 | Nb   4   0.85625   0.55141   0.75343   |   -1.21041   4.98219   9.78379    |
 | Nb   5   0.44859   0.14375   0.75343   |   -1.21041   2.09650   9.78379    |
 | Nb   6   0.44859   0.55141   0.75343   |   -3.70950   3.53935   9.78379    |
 | Br   1   0.70633   0.79327   0.61939   |   -3.06435   5.30760   8.04319    |
 | Br   2   0.70633   0.29367   0.61939   |   -0.00163   3.53935   8.04319    |
 | Br   3   0.20673   0.29367   0.61939   |   -3.06435   1.77109   8.04319    |
 | Br   4   0.29367   0.20673   0.38061   |   -1.02254   1.77109   4.94247    |
 | Br   5   0.29367   0.70633   0.38061   |   -4.08525   3.53935   4.94247    |
 | Br   6   0.79327   0.70633   0.38061   |   -1.02254   5.30760   4.94247    |
 | Br   7   0.11836   0.37274   0.86398   |   -5.09042   1.73817  11.21935    |
 | Br   8   0.11836   0.88164   0.86398   |   -8.21014   3.53935  11.21935    |
 | Br   9   0.62726   0.88164   0.86398   |   -5.09042   5.34052  11.21935    |
 | Br  10   0.88164   0.62726   0.13602   |    1.00353   5.34052   1.76631    |
 | Br  11   0.88164   0.11836   0.13602   |    4.12326   3.53935   1.76631    |
 | Br  12   0.37274   0.11836   0.13602   |    1.00353   1.73817   1.76631    |
 | Br  13   0.21495   0.78505   0.64486   |   -6.13033   3.53935   8.37394    |
 | Br  14   0.78505   0.21495   0.35514   |    2.04344   3.53935   4.61173    |
 | Br  15   0.63469   0.36531   0.90406   |   -2.04344   3.53935  11.73982    |
 | Br  16   0.36531   0.63469   0.09594   |   -2.04344   3.53935   1.24584    |
 *----------------------------------------------------------------------------*
  
                                ------------
                                K-POINT GRID
                                ------------
  
             Grid size = 15 x 15 x 15      Total points = 3375
  
  
 *---------------------------------- MAIN ------------------------------------*
 |  Number of Wannier Functions               :               128             |
 |  Number of input Bloch states              :               128             |
 |  Output verbosity (1=low, 5=high)          :                 1             |
 |  Timing Level (1=low, 5=high)              :                 1             |
 |  Optimisation (0=memory, 3=speed)          :                 3             |
 |  Length Unit                               :               Ang             |
 |  Post-processing setup (write *.nnkp)      :                 F             |
 |  Using Gamma-only branch of algorithms     :                 F             |
 *----------------------------------------------------------------------------*
 *------------------------------- WANNIERISE ---------------------------------*
 |  Total number of iterations                :               100             |
 |  Number of CG steps before reset           :                 5             |
 |  Trial step length for line search         :             2.000             |
 |  Convergence tolerence                     :         0.100E-09             |
 |  Convergence window                        :                -1             |
 |  Iterations between writing output         :                 1             |
 |  Iterations between backing up to disk     :               100             |
 |  Write r^2_nm to file                      :                 F             |
 |  Write xyz WF centres to file              :                 F             |
 |  Use guiding centre to control phases      :                 F             |
 *----------------------------------------------------------------------------*
 Time to read parameters        0.040 (sec)

 *---------------------------------- K-MESH ----------------------------------*
 +----------------------------------------------------------------------------+
 |                    Distance to Nearest-Neighbour Shells                    |
 |                    ------------------------------------                    |
 |          Shell             Distance (Ang^-1)          Multiplicity         |
 |          -----             -----------------          ------------         |
 |             1                   0.032257                      2            |
 |             2                   0.064514                      2            |
 |             3                   0.069170                      6            |
 |             4                   0.071633                      6            |
 |             5                   0.080738                      6            |
 |             6                   0.086944                      6            |
 |             7                   0.096771                      2            |
 |             8                   0.101656                      6            |
 |             9                   0.109855                      6            |
 |            10                   0.118349                      6            |
 |            11                   0.122667                     12            |
 |            12                   0.127398                      6            |
 +----------------------------------------------------------------------------+
 | The b-vectors are chosen automatically                                     |
 | The following shells are used:   1,  3                                     |
 +----------------------------------------------------------------------------+
 |                        Shell   # Nearest-Neighbours                        |
 |                        -----   --------------------                        |
 |                          1               2                                 |
 |                          3               6                                 |
 +----------------------------------------------------------------------------+
 | Completeness relation is fully satisfied [Eq. (B1), PRB 56, 12847 (1997)]  |
 +----------------------------------------------------------------------------+
 |                  b_k Vectors (Ang^-1) and Weights (Ang^2)                  |
 |                  ----------------------------------------                  |
 |            No.         b_k(x)      b_k(y)      b_k(z)        w_b           |
 |            ---        --------------------------------     --------        |
 |             1         0.000000    0.000000    0.032257   456.732295        |
 |             2         0.000000    0.000000   -0.032257   456.732295        |
 |             3         0.034164    0.059175    0.010752    71.395137        |
 |             4        -0.034164   -0.059175   -0.010752    71.395137        |
 |             5         0.034164   -0.059175    0.010752    71.395137        |
 |             6        -0.034164    0.059175   -0.010752    71.395137        |
 |             7        -0.068329    0.000000    0.010752    71.395137        |
 |             8         0.068329    0.000000   -0.010752    71.395137        |
 +----------------------------------------------------------------------------+
 |                           b_k Directions (Ang^-1)                          |
 |                           -----------------------                          |
 |            No.           x           y           z                         |
 |            ---        --------------------------------                     |
 |             1         0.000000    0.000000    0.032257                     |
 |             2         0.034164    0.059175    0.010752                     |
 |             3         0.034164   -0.059175    0.010752                     |
 |             4        -0.068329    0.000000    0.010752                     |
 +----------------------------------------------------------------------------+
  
 Time to write kmesh            0.605 (sec)

 Finished setting up k-point neighbours.

 Returning to pw2wannier90 at 19:10:25 

 Resuming Wannier90 at 19:21:17 

 Ignoring <mp_grid> in input file
 Ignoring <unit_cell_cart> in input file
 Ignoring <kpoints> in input file
 Ignoring <atoms_cart> in input file
 
                                    ------
                                    SYSTEM
                                    ------
 
                              Lattice Vectors (Ang)
                    a_1     6.130326   3.539345   0.000000
                    a_2    -6.130326   3.539345   0.000000
                    a_3    -4.086884   0.000000  12.985664
 
                   Unit Cell Volume:     563.50871  (Ang^3)
 
                        Reciprocal-Space Vectors (Ang^-1)
                    b_1     0.512467   0.887620   0.161285
                    b_2    -0.512467   0.887620  -0.161285
                    b_3     0.000000   0.000000   0.483856
  
 *----------------------------------------------------------------------------*
 |   Site       Fractional Coordinate          Cartesian Coordinate (Ang)     |
 +----------------------------------------------------------------------------+
 | Nb   1   0.14375   0.44859   0.24657   |   -2.87647   2.09650   3.20188    |
 | Nb   2   0.55141   0.85625   0.24657   |   -2.87647   4.98219   3.20188    |
 | Nb   3   0.55141   0.44859   0.24657   |   -0.37738   3.53935   3.20188    |
 | Nb   4   0.85625   0.55141   0.75343   |   -1.21041   4.98219   9.78379    |
 | Nb   5   0.44859   0.14375   0.75343   |   -1.21041   2.09650   9.78379    |
 | Nb   6   0.44859   0.55141   0.75343   |   -3.70950   3.53935   9.78379    |
 | Br   1   0.70633   0.79327   0.61939   |   -3.06435   5.30760   8.04319    |
 | Br   2   0.70633   0.29367   0.61939   |   -0.00163   3.53935   8.04319    |
 | Br   3   0.20673   0.29367   0.61939   |   -3.06435   1.77109   8.04319    |
 | Br   4   0.29367   0.20673   0.38061   |   -1.02254   1.77109   4.94247    |
 | Br   5   0.29367   0.70633   0.38061   |   -4.08525   3.53935   4.94247    |
 | Br   6   0.79327   0.70633   0.38061   |   -1.02254   5.30760   4.94247    |
 | Br   7   0.11836   0.37274   0.86398   |   -5.09042   1.73817  11.21935    |
 | Br   8   0.11836   0.88164   0.86398   |   -8.21014   3.53935  11.21935    |
 | Br   9   0.62726   0.88164   0.86398   |   -5.09042   5.34052  11.21935    |
 | Br  10   0.88164   0.62726   0.13602   |    1.00353   5.34052   1.76631    |
 | Br  11   0.88164   0.11836   0.13602   |    4.12326   3.53935   1.76631    |
 | Br  12   0.37274   0.11836   0.13602   |    1.00353   1.73817   1.76631    |
 | Br  13   0.21495   0.78505   0.64486   |   -6.13033   3.53935   8.37394    |
 | Br  14   0.78505   0.21495   0.35514   |    2.04344   3.53935   4.61173    |
 | Br  15   0.63469   0.36531   0.90406   |   -2.04344   3.53935  11.73982    |
 | Br  16   0.36531   0.63469   0.09594   |   -2.04344   3.53935   1.24584    |
 *----------------------------------------------------------------------------*
  
                                ------------
                                K-POINT GRID
                                ------------
  
             Grid size = 15 x 15 x 15      Total points = 3375
  
  
 *---------------------------------- MAIN ------------------------------------*
 |  Number of Wannier Functions               :               128             |
 |  Number of input Bloch states              :               128             |
 |  Output verbosity (1=low, 5=high)          :                 1             |
 |  Timing Level (1=low, 5=high)              :                 1             |
 |  Optimisation (0=memory, 3=speed)          :                 3             |
 |  Length Unit                               :               Ang             |
 |  Post-processing setup (write *.nnkp)      :                 F             |
 |  Using Gamma-only branch of algorithms     :                 F             |
 *----------------------------------------------------------------------------*
 *------------------------------- WANNIERISE ---------------------------------*
 |  Total number of iterations                :               100             |
 |  Number of CG steps before reset           :                 5             |
 |  Trial step length for line search         :             2.000             |
 |  Convergence tolerence                     :         0.100E-09             |
 |  Convergence window                        :                -1             |
 |  Iterations between writing output         :                 1             |
 |  Iterations between backing up to disk     :               100             |
 |  Write r^2_nm to file                      :                 F             |
 |  Write xyz WF centres to file              :                 F             |
 |  Use guiding centre to control phases      :                 F             |
 *----------------------------------------------------------------------------*
 Time to read parameters        0.039 (sec)

 *---------------------------------- K-MESH ----------------------------------*
 +----------------------------------------------------------------------------+
 |                    Distance to Nearest-Neighbour Shells                    |
 |                    ------------------------------------                    |
 |          Shell             Distance (Ang^-1)          Multiplicity         |
 |          -----             -----------------          ------------         |
 |             1                   0.032257                      2            |
 |             2                   0.064514                      2            |
 |             3                   0.069170                      6            |
 |             4                   0.071633                      6            |
 |             5                   0.080738                      6            |
 |             6                   0.086944                      6            |
 |             7                   0.096771                      2            |
 |             8                   0.101656                      6            |
 |             9                   0.109855                      6            |
 |            10                   0.118349                      6            |
 |            11                   0.122667                     12            |
 |            12                   0.127398                      6            |
 +----------------------------------------------------------------------------+
 | The b-vectors are chosen automatically                                     |
 | The following shells are used:   1,  3                                     |
 +----------------------------------------------------------------------------+
 |                        Shell   # Nearest-Neighbours                        |
 |                        -----   --------------------                        |
 |                          1               2                                 |
 |                          3               6                                 |
 +----------------------------------------------------------------------------+
 | Completeness relation is fully satisfied [Eq. (B1), PRB 56, 12847 (1997)]  |
 +----------------------------------------------------------------------------+
 |                  b_k Vectors (Ang^-1) and Weights (Ang^2)                  |
 |                  ----------------------------------------                  |
 |            No.         b_k(x)      b_k(y)      b_k(z)        w_b           |
 |            ---        --------------------------------     --------        |
 |             1         0.000000    0.000000    0.032257   456.732295        |
 |             2         0.000000    0.000000   -0.032257   456.732295        |
 |             3         0.034164    0.059175    0.010752    71.395137        |
 |             4        -0.034164   -0.059175   -0.010752    71.395137        |
 |             5         0.034164   -0.059175    0.010752    71.395137        |
 |             6        -0.034164    0.059175   -0.010752    71.395137        |
 |             7        -0.068329    0.000000    0.010752    71.395137        |
 |             8         0.068329    0.000000   -0.010752    71.395137        |
 +----------------------------------------------------------------------------+
 |                           b_k Directions (Ang^-1)                          |
 |                           -----------------------                          |
 |            No.           x           y           z                         |
 |            ---        --------------------------------                     |
 |             1         0.000000    0.000000    0.032257                     |
 |             2         0.034164    0.059175    0.010752                     |
 |             3         0.034164   -0.059175    0.010752                     |
 |             4        -0.068329    0.000000    0.010752                     |
 +----------------------------------------------------------------------------+
  
 Time to get kmesh              0.564 (sec)
 Time to project overlaps      37.371 (sec)
 
 *------------------------------- WANNIERISE ---------------------------------*
 +--------------------------------------------------------------------+<-- CONV
 | Iter  Delta Spread     RMS Gradient      Spread (Ang^2)      Time  |<-- CONV
 +--------------------------------------------------------------------+<-- CONV
 
 ------------------------------------------------------------------------------
 Initial State
  WF centre and spread    1  (  0.059033, -0.039326, -0.572853 )  4399.66532515
  WF centre and spread    2  (  0.004541, -0.007865, -0.085142 )  4435.92003724
  WF centre and spread    3  (  0.054492,  0.000000, -0.323144 )  4777.81390270
  WF centre and spread    4  (  0.022705,  0.023596, -0.256855 )  4851.41187350
  WF centre and spread    5  (  0.040869, -0.055057, -0.227998 )  4217.53932863
  WF centre and spread    6  (  0.027246, -0.015730, -0.460283 )  4696.44650048
  WF centre and spread    7  (  0.009082, -0.000000, -0.183146 )  4445.66474668
  WF centre and spread    8  (  0.013623,  0.039326, -0.424281 )  4879.29437287
  WF centre and spread    9  (  0.027246,  0.047191, -0.268288 )  4828.42735150
  WF centre and spread   10  ( -0.004541,  0.039326, -0.092288 )  4750.94479140
  WF centre and spread   11  ( -0.000000,  0.031461, -0.227998 )  4580.48876302
  WF centre and spread   12  (  0.040869,  0.086517, -0.561420 )  5078.38072166
  WF centre and spread   13  (  0.009082,  0.015730, -0.165996 )  4445.21593765
  WF centre and spread   14  (  0.027246, -0.000000, -0.683994 )  4396.30138614
  WF centre and spread   15  ( -0.013623,  0.007865, -0.365137 )  4617.25317008
  WF centre and spread   16  (  0.059033,  0.086517, -0.282421 )  4487.22754135
  WF centre and spread   17  (  0.009082,  0.015730, -0.032317 )  4685.14061243
  WF centre and spread   18  (  0.022705,  0.070787, -0.717138 )  4539.49647614
  WF centre and spread   19  (  0.009082,  0.000000, -0.311711 )  4449.19059477
  WF centre and spread   20  (  0.049951,  0.086517, -0.297145 )  4748.02030420
  WF centre and spread   21  (  0.027246,  0.047191, -0.118286 )  4835.42332816
  WF centre and spread   22  (  0.068115,  0.023596, -0.455996 )  4564.67935591
  WF centre and spread   23  (  0.040869,  0.086517, -0.204858 )  4606.21042890
  WF centre and spread   24  (  0.000000,  0.000000, -0.291429 )  4632.46390472
  WF centre and spread   25  (  0.054492,  0.000000, -0.187708 )  4590.07842465
  WF centre and spread   26  (  0.004541, -0.039326, -0.367996 )  4544.15116337
  WF centre and spread   27  (  0.009082, -0.031461, -0.225140 )  4489.32788956
  WF centre and spread   28  (  0.022705, -0.007865, -0.119716 )  4467.77284417
  WF centre and spread   29  (  0.054492, -0.047191, -0.629138 )  4681.77054748
  WF centre and spread   30  (  0.036328, -0.015730, -0.028857 )  4121.11396259
  WF centre and spread   31  ( -0.009082, -0.031461, -0.541138 )  4603.28839024
  WF centre and spread   32  (  0.009082, -0.015730, -0.165996 )  4755.29459645
  WF centre and spread   33  (  0.031787, -0.039326, -0.253997 )  4480.49929374
  WF centre and spread   34  (  0.018164, -0.015730, -0.549713 )  4591.57642340
  WF centre and spread   35  ( -0.000000, -0.000000,  0.027428 )  4181.34763388
  WF centre and spread   36  (  0.063574, -0.047191, -0.588574 )  4797.00244294
  WF centre and spread   37  ( -0.009082, -0.015730, -0.002858 )  4190.21410087
  WF centre and spread   38  (  0.049951, -0.023596, -0.831137 )  4310.71433345
  WF centre and spread   39  (  0.036328, -0.015730, -0.493428 )  4590.72842347
  WF centre and spread   40  (  0.036328, -0.031461, -0.083713 )  4334.16010691
  WF centre and spread   41  (  0.045410, -0.031461, -0.171713 )  4634.75246119
  WF centre and spread   42  ( -0.000000,  0.015730, -0.181717 )  4695.00202916
  WF centre and spread   43  ( -0.004541, -0.039326, -0.024570 )  4573.33779631
  WF centre and spread   44  (  0.040869, -0.007865, -0.624851 )  4850.23552017
  WF centre and spread   45  (  0.018164, -0.031461, -0.089429 )  4564.73560947
  WF centre and spread   46  (  0.036328, -0.000000, -0.124003 )  4668.96702177
  WF centre and spread   47  (  0.022705, -0.007865, -0.046007 )  4553.39964097
  WF centre and spread   48  (  0.018164, -0.015730, -0.011433 )  4632.14317400
  WF centre and spread   49  (  0.049951, -0.007865, -0.220852 )  4612.09962974
  WF centre and spread   50  (  0.004541, -0.007865,  0.051997 )  4768.20470328
  WF centre and spread   51  (  0.054492,  0.000000, -0.008575 )  4520.88665050
  WF centre and spread   52  (  0.004541,  0.055056, -0.093717 )  4880.95187872
  WF centre and spread   53  (  0.031787,  0.007865, -0.317427 )  4966.52177088
  WF centre and spread   54  (  0.022705,  0.023596, -0.138569 )  4570.47938720
  WF centre and spread   55  ( -0.013623, -0.007865, -0.443134 )  4889.25303090
  WF centre and spread   56  (  0.009082, -0.000000, -0.001429 )  4681.84217314
  WF centre and spread   57  (  0.049951, -0.023596, -0.069147 )  4863.68168478
  WF centre and spread   58  (  0.027246, -0.015730, -0.086571 )  4459.38196348
  WF centre and spread   59  (  0.022705,  0.055056, -0.265430 )  4456.95961689
  WF centre and spread   60  (  0.004541,  0.007865, -0.024296 )  4894.69288420
  WF centre and spread   61  (  0.013623, -0.007865, -0.242563 )  4501.82193708
  WF centre and spread   62  (  0.013623, -0.023596, -0.213432 )  4577.95724389
  WF centre and spread   63  (  0.049951, -0.023596, -0.261142 )  4776.82050438
  WF centre and spread   64  (  0.027246,  0.015730, -0.291429 )  4798.16946386
  WF centre and spread   65  (  0.013626, -0.007865, -0.569995 )  4846.68660737
  WF centre and spread   66  (  0.031787,  0.039326, -0.007146 )  4550.61709998
  WF centre and spread   67  (  0.022705,  0.007865, -0.100863 )  4942.07031971
  WF centre and spread   68  (  0.009082, -0.000000, -0.088000 )  4978.76074232
  WF centre and spread   69  (  0.072656,  0.015730, -0.399711 )  4448.95418640
  WF centre and spread   70  (  0.000000,  0.000000, -0.000000 )  4617.46215079
  WF centre and spread   71  (  0.018164, -0.000000, -0.367996 )  4692.37367353
  WF centre and spread   72  (  0.049951,  0.023596, -0.197712 )  4273.90855569
  WF centre and spread   73  (  0.036328, -0.015730, -0.499418 )  4742.43412916
  WF centre and spread   74  ( -0.022705,  0.007865, -0.129720 )  4612.86233106
  WF centre and spread   75  ( -0.013623, -0.007865, -0.141427 )  4650.36858101
  WF centre and spread   76  (  0.054492, -0.000000, -0.177430 )  5008.03525798
  WF centre and spread   77  (  0.018164,  0.000000, -0.043149 )  4531.58920414
  WF centre and spread   78  (  0.022705,  0.023596, -0.170284 )  4847.39260237
  WF centre and spread   79  (  0.031787, -0.023596,  0.106853 )  4737.91477387
  WF centre and spread   80  (  0.027246, -0.015730, -0.274279 )  4748.86830092
  WF centre and spread   81  (  0.018164, -0.000000, -0.038861 )  4865.43823060
  WF centre and spread   82  ( -0.004541, -0.023596, -0.178859 )  4891.08200052
  WF centre and spread   83  (  0.031787, -0.023596, -0.030286 )  5012.33165424
  WF centre and spread   84  (  0.049951, -0.007865, -0.256855 )  4554.22753095
  WF centre and spread   85  (  0.031787, -0.039326, -0.062002 )  4468.93220369
  WF centre and spread   86  (  0.004541, -0.007865, -0.454567 )  4646.64237861
  WF centre and spread   87  (  0.027246,  0.031461, -0.578570 )  4442.14637559
  WF centre and spread   88  ( -0.018164,  0.000000, -0.028857 )  4232.71386860
  WF centre and spread   89  ( -0.000000, -0.015730, -0.569995 )  4161.18302571
  WF centre and spread   90  (  0.072656, -0.031461, -0.313140 )  4430.47537836
  WF centre and spread   91  (  0.000000,  0.015730, -0.483424 )  4576.65761394
  WF centre and spread   92  (  0.036328,  0.000000, -0.210574 )  4326.90469540
  WF centre and spread   93  (  0.000000, -0.000000, -0.004287 )  4583.06296490
  WF centre and spread   94  (  0.063574, -0.000000, -0.603139 )  4526.59938080
  WF centre and spread   95  (  0.068115, -0.055056, -0.665141 )  4527.02601278
  WF centre and spread   96  (  0.000000,  0.000000,  0.023140 )  4187.56932509
  WF centre and spread   97  (  0.009082, -0.015730, -0.024570 )  4513.70642225
  WF centre and spread   98  (  0.059033, -0.007865, -0.889125 )  4608.74974412
  WF centre and spread   99  (  0.031787, -0.007865, -0.199141 )  4472.34276882
  WF centre and spread  100  (  0.022705, -0.023596, -0.466000 )  4691.18303759
  WF centre and spread  101  (  0.040869,  0.055056, -0.173142 )  4046.79269764
  WF centre and spread  102  (  0.013623, -0.023596,  0.082284 )  4387.48840096
  WF centre and spread  103  (  0.040869,  0.023596,  0.109712 )  4780.97310390
  WF centre and spread  104  ( -0.000000, -0.000000,  0.305994 )  4503.31200913
  WF centre and spread  105  (  0.013623,  0.007865,  0.141427 )  4567.40985746
  WF centre and spread  106  (  0.063574,  0.047191, -0.092288 )  4567.05875147
  WF centre and spread  107  (  0.009082, -0.015730, -0.134281 )  4598.48096524
  WF centre and spread  108  (  0.009082, -0.015730, -0.098278 )  4335.78937751
  WF centre and spread  109  (  0.022703,  0.007865,  0.025999 )  4469.88757563
  WF centre and spread  110  (  0.068115,  0.007865, -0.063431 )  4518.46383452
  WF centre and spread  111  (  0.027262,  0.047191,  0.101134 )  4886.93661625
  WF centre and spread  112  (  0.000000, -0.000000, -0.027428 )  4498.11117532
  WF centre and spread  113  ( -0.040869,  0.055056,  0.347988 )  4575.81900437
  WF centre and spread  114  ( -0.018164,  0.000000, -0.028857 )  4594.13967864
  WF centre and spread  115  (  0.000000,  0.000000, -0.027428 )  4421.99295964
  WF centre and spread  116  (  0.022705, -0.007865,  0.331993 )  4289.22988387
  WF centre and spread  117  (  0.040869,  0.007865, -0.080580 )  4561.94583938
  WF centre and spread  118  (  0.031787,  0.007865,  0.121419 )  4750.91357867
  WF centre and spread  119  (  0.013623, -0.007865,  0.145714 )  4385.89017690
  WF centre and spread  120  ( -0.000000, -0.000000, -0.168854 )  4602.78786908
  WF centre and spread  121  (  0.004535, -0.007864,  0.303143 )  4577.58618504
  WF centre and spread  122  ( -0.027251,  0.015741,  0.141423 )  4452.14618185
  WF centre and spread  123  (  0.000001,  0.047186,  0.223712 )  4669.76616546
  WF centre and spread  124  (  0.045406,  0.000011,  0.111140 )  4632.13495761
  WF centre and spread  125  (  0.018161,  0.031464, -0.080850 )  4599.54269118
  WF centre and spread  126  (  0.005191,  0.023292,  0.408262 )  4920.65462230
  WF centre and spread  127  (  0.007922,  0.031614, -0.023727 )  4751.45024986
  WF centre and spread  128  ( -0.021155,  0.039828, -0.210151 )  5306.92299305
  Sum of centres and spreads (  2.830073,  0.354306,-23.953724 )589272.85963922
 
      0     0.589E+06     0.0000000000   589272.8596378769     691.72  <-- CONV
        O_D= 565530.7781319 O_OD=  22717.6834144 O_TOT= 589272.8596379 <-- SPRD
 ------------------------------------------------------------------------------
 Cycle:      1
  WF centre and spread    1  (  0.054701, -0.031457, -0.541336 )  4382.18783166
  WF centre and spread    2  ( -0.016493,  0.000133,  0.033416 )  4443.81465289
  WF centre and spread    3  ( -0.101437,  0.014811, -0.300075 )  4792.37851766
  WF centre and spread    4  (  0.009125,  0.044550, -0.488295 )  4878.16513180
  WF centre and spread    5  (  0.088021, -0.010004, -0.187032 )  4242.22876204
  WF centre and spread    6  (  0.016872,  0.105572, -0.699054 )  4716.40887993
  WF centre and spread    7  (  0.000578,  0.000772, -0.252059 )  4462.68782662
  WF centre and spread    8  ( -0.031699,  0.030918, -0.111494 )  4884.58685631
  WF centre and spread    9  (  0.065664,  0.015818, -0.238689 )  4823.97231003
  WF centre and spread   10  (  0.018367,  0.001579, -0.388444 )  4765.11058971
  WF centre and spread   11  ( -0.045499,  0.017072, -0.224275 )  4568.71217405
  WF centre and spread   12  (  0.081989,  0.097571, -0.388975 )  5070.42158181
  WF centre and spread   13  (  0.010619,  0.015770, -0.205660 )  4448.89075901
  WF centre and spread   14  (  0.026781, -0.000580, -0.684302 )  4408.41435158
  WF centre and spread   15  ( -0.005224, -0.028408, -0.648159 )  4652.60665279
  WF centre and spread   16  (  0.081963,  0.097358, -0.322159 )  4487.00267199
  WF centre and spread   17  ( -0.005731, -0.005032,  0.115509 )  4711.91555190
  WF centre and spread   18  ( -0.038565,  0.118228, -0.485815 )  4559.33293501
  WF centre and spread   19  ( -0.000284, -0.015389, -0.328350 )  4478.90314040
  WF centre and spread   20  (  0.053300,  0.079909, -0.357214 )  4770.03187614
  WF centre and spread   21  (  0.043039,  0.051223, -0.229801 )  4837.91216086
  WF centre and spread   22  (  0.121352,  0.044036, -0.412910 )  4577.55785993
  WF centre and spread   23  (  0.000404,  0.049044, -0.022455 )  4621.53787819
  WF centre and spread   24  ( -0.018248, -0.019014, -0.259860 )  4631.19306684
  WF centre and spread   25  (  0.063508, -0.015769, -0.212579 )  4595.81437625
  WF centre and spread   26  (  0.009041, -0.047111, -0.284423 )  4551.03402311
  WF centre and spread   27  (  0.017181, -0.031615, -0.202925 )  4495.95667222
  WF centre and spread   28  (  0.036303, -0.031334, -0.096933 )  4481.36821470
  WF centre and spread   29  (  0.027216, -0.047198, -0.663927 )  4698.87364770
  WF centre and spread   30  (  0.026349, -0.015780, -0.031678 )  4129.34124157
  WF centre and spread   31  (  0.014253, -0.014461, -0.553599 )  4650.35383261
  WF centre and spread   32  (  0.002728, -0.017207, -0.194292 )  4758.14026033
  WF centre and spread   33  (  0.022883, -0.033922, -0.258559 )  4481.29922268
  WF centre and spread   34  (  0.024503, -0.023274, -0.518498 )  4663.50635123
  WF centre and spread   35  (  0.009996,  0.014388,  0.032650 )  4207.60373665
  WF centre and spread   36  (  0.064020, -0.047048, -0.449805 )  4820.98951551
  WF centre and spread   37  ( -0.008467, -0.016051, -0.002767 )  4210.02604401
  WF centre and spread   38  (  0.092352, -0.003069, -0.254779 )  4376.21461184
  WF centre and spread   39  ( -0.030439, -0.058034, -0.350998 )  4653.62472185
  WF centre and spread   40  (  0.053907,  0.106478, -0.133715 )  4429.00325948
  WF centre and spread   41  (  0.013159, -0.096347, -0.363124 )  4707.62979692
  WF centre and spread   42  (  0.065917,  0.110656, -0.593373 )  4740.24265381
  WF centre and spread   43  ( -0.199037, -0.099565,  0.026599 )  4676.94858676
  WF centre and spread   44  (  0.140179,  0.004646, -0.456219 )  4924.08048957
  WF centre and spread   45  (  0.031605, -0.032132, -0.017191 )  4654.09110027
  WF centre and spread   46  (  0.040539,  0.009896, -0.076348 )  4727.50485318
  WF centre and spread   47  ( -0.021237, -0.101242,  0.004468 )  4653.51962318
  WF centre and spread   48  ( -0.131426,  0.017885,  0.425890 )  4655.97381458
  WF centre and spread   49  (  0.204701, -0.048459, -0.388000 )  4678.29034381
  WF centre and spread   50  ( -0.032057,  0.134452,  0.270342 )  4818.44954211
  WF centre and spread   51  (  0.263414,  0.183958, -0.428138 )  4659.84275892
  WF centre and spread   52  ( -0.170387, -0.253714,  0.051427 )  5002.02624407
  WF centre and spread   53  (  0.090972, -0.044191, -0.011115 )  4983.83450466
  WF centre and spread   54  (  0.026322,  0.052235,  0.178256 )  4672.27181642
  WF centre and spread   55  (  0.073540,  0.030606, -0.864427 )  4914.23458787
  WF centre and spread   56  (  0.140232,  0.024323,  0.112592 )  4787.58687951
  WF centre and spread   57  ( -0.033381,  0.064199, -0.041924 )  4970.31165365
  WF centre and spread   58  ( -0.040160,  0.038756, -0.579937 )  4524.03663999
  WF centre and spread   59  ( -0.063989,  0.004547, -0.506666 )  4560.61217577
  WF centre and spread   60  (  0.056250,  0.229059, -0.126556 )  4950.07832047
  WF centre and spread   61  (  0.067344, -0.089245, -0.094799 )  4599.06859847
  WF centre and spread   62  ( -0.091064,  0.189480, -0.494812 )  4679.27375030
  WF centre and spread   63  (  0.104629,  0.040282, -0.427037 )  4891.18173657
  WF centre and spread   64  (  0.036539,  0.099430, -0.545633 )  4811.91477092
  WF centre and spread   65  ( -0.173263, -0.223371, -0.455087 )  4912.01710658
  WF centre and spread   66  (  0.159097,  0.028962, -0.485373 )  4593.58557773
  WF centre and spread   67  ( -0.059614, -0.094149, -0.418630 )  5047.74132808
  WF centre and spread   68  (  0.248193, -0.107031,  0.395895 )  4978.26500202
  WF centre and spread   69  (  0.014542,  0.020358, -0.078013 )  4567.29994448
  WF centre and spread   70  ( -0.028016,  0.114613,  0.092217 )  4812.06347375
  WF centre and spread   71  (  0.003228, -0.179238, -0.618261 )  4795.30837991
  WF centre and spread   72  ( -0.038198,  0.029172, -0.314142 )  4359.67039901
  WF centre and spread   73  (  0.060353, -0.153524, -0.833942 )  4907.15362301
  WF centre and spread   74  (  0.021480,  0.281598, -0.122099 )  4668.52682165
  WF centre and spread   75  (  0.182612,  0.068195,  0.354970 )  4667.45905502
  WF centre and spread   76  (  0.047985,  0.047832, -0.183238 )  5047.21025119
  WF centre and spread   77  (  0.090476,  0.051519,  0.031541 )  4603.70086013
  WF centre and spread   78  ( -0.048633, -0.207878, -0.189262 )  4909.72781875
  WF centre and spread   79  ( -0.115146, -0.098347,  0.298284 )  4814.93865859
  WF centre and spread   80  (  0.043074,  0.003700, -0.220724 )  4806.32083773
  WF centre and spread   81  (  0.188209, -0.040765, -0.204891 )  4984.16388782
  WF centre and spread   82  ( -0.125661, -0.095069, -0.421956 )  5005.65609598
  WF centre and spread   83  (  0.087159,  0.030292, -0.418975 )  4953.61378517
  WF centre and spread   84  (  0.002994, -0.045951,  0.124715 )  4680.74616702
  WF centre and spread   85  ( -0.127692, -0.100015, -0.054839 )  4617.48779468
  WF centre and spread   86  ( -0.047592,  0.121795, -0.242716 )  4697.49912423
  WF centre and spread   87  ( -0.026588, -0.060375, -0.249520 )  4547.26462195
  WF centre and spread   88  ( -0.024926,  0.040052, -0.119319 )  4296.85680685
  WF centre and spread   89  ( -0.000732, -0.031713, -0.486362 )  4201.72811627
  WF centre and spread   90  (  0.054103,  0.000246, -0.376412 )  4467.62289248
  WF centre and spread   91  ( -0.014397,  0.048927, -0.567605 )  4678.62721986
  WF centre and spread   92  ( -0.059716,  0.011778, -0.398706 )  4354.27683550
  WF centre and spread   93  (  0.012929, -0.028799, -0.000880 )  4646.10389607
  WF centre and spread   94  (  0.081159, -0.026724, -0.565319 )  4548.97986460
  WF centre and spread   95  (  0.072840, -0.031715, -0.443105 )  4587.20996785
  WF centre and spread   96  ( -0.000422, -0.000278,  0.018174 )  4244.47087848
  WF centre and spread   97  ( -0.010125, -0.088658,  0.218042 )  4543.54641295
  WF centre and spread   98  ( -0.005314, -0.027469, -0.720028 )  4599.04375303
  WF centre and spread   99  (  0.136976,  0.077517, -0.264668 )  4482.45770983
  WF centre and spread  100  (  0.095969,  0.068103, -0.456252 )  4746.76933702
  WF centre and spread  101  (  0.017712,  0.061751, -0.252253 )  4092.27054870
  WF centre and spread  102  (  0.000461,  0.001386, -0.122444 )  4490.00137441
  WF centre and spread  103  (  0.005093, -0.046914,  0.013867 )  4857.70002888
  WF centre and spread  104  (  0.044703,  0.040112,  0.237616 )  4488.51720973
  WF centre and spread  105  ( -0.004180, -0.015499, -0.347732 )  4639.21193282
  WF centre and spread  106  (  0.144399, -0.054382,  0.363297 )  4633.08535539
  WF centre and spread  107  (  0.065112, -0.062606, -0.361170 )  4692.27127048
  WF centre and spread  108  (  0.061812, -0.024961,  0.097835 )  4431.50511426
  WF centre and spread  109  ( -0.000377,  0.000597, -0.111482 )  4507.67800133
  WF centre and spread  110  (  0.132095,  0.056218,  0.135895 )  4605.81336965
  WF centre and spread  111  (  0.128779,  0.160206, -0.742877 )  4964.52091303
  WF centre and spread  112  ( -0.083899, -0.049003,  0.192498 )  4584.36476943
  WF centre and spread  113  ( -0.083707,  0.046894,  0.076979 )  4614.38205550
  WF centre and spread  114  ( -0.024285,  0.011115,  0.065800 )  4658.12940956
  WF centre and spread  115  (  0.019834, -0.015414, -0.087095 )  4456.24624797
  WF centre and spread  116  (  0.039466,  0.024244,  0.493748 )  4330.84685965
  WF centre and spread  117  (  0.057942,  0.084561,  0.180312 )  4630.63945396
  WF centre and spread  118  (  0.045613,  0.014778,  0.243142 )  4820.59962197
  WF centre and spread  119  (  0.045316,  0.047203, -0.110758 )  4398.06361204
  WF centre and spread  120  ( -0.000147, -0.000074, -0.166445 )  4611.35473507
  WF centre and spread  121  (  0.008998, -0.016706,  0.299192 )  4576.20631298
  WF centre and spread  122  (  0.006506,  0.016033,  0.196566 )  4448.67494772
  WF centre and spread  123  (  0.059777,  0.093236,  0.242341 )  4687.89550506
  WF centre and spread  124  (  0.036523,  0.046135,  0.043921 )  4662.98369283
  WF centre and spread  125  (  0.000533,  0.047245,  0.238186 )  4623.24863229
  WF centre and spread  126  ( -0.009569,  0.009787,  0.015076 )  4928.37336433
  WF centre and spread  127  ( -0.004417,  0.031987,  0.066793 )  4750.44189428
  WF centre and spread  128  (  0.010040,  0.080348,  0.010757 )  5321.08414741
  Sum of centres and spreads (  2.825012,  0.854850,-24.214962 )595543.35367866
 
      1     0.627E+04  ***************   595543.3536774814     773.66  <-- CONV
        O_D= 564408.3131159 O_OD=  30110.6424700 O_TOT= 595543.3536775 <-- SPRD
 Delta: O_D= -0.1122465E+04 O_OD=  0.7392959E+04 O_TOT=  0.6270494E+04 <-- DLTA
 ------------------------------------------------------------------------------
 Cycle:      2
  WF centre and spread    1  (  0.054779, -0.031652, -0.541179 )  4379.49155537
  WF centre and spread    2  ( -0.005879, -0.000437,  0.054957 )  4438.33773000
  WF centre and spread    3  ( -0.102423,  0.014925, -0.299930 )  4788.54894983
  WF centre and spread    4  (  0.004235,  0.038986, -0.503860 )  4869.66811006
  WF centre and spread    5  (  0.088007, -0.008502, -0.185596 )  4239.16870705
  WF centre and spread    6  (  0.024065,  0.098636, -0.684831 )  4709.45882389
  WF centre and spread    7  (  0.019818, -0.000590, -0.205909 )  4461.04735002
  WF centre and spread    8  ( -0.033995,  0.032727, -0.168896 )  4872.53707522
  WF centre and spread    9  (  0.061526,  0.014918, -0.248138 )  4816.03449072
  WF centre and spread   10  (  0.016861,  0.001550, -0.387510 )  4755.75833014
  WF centre and spread   11  ( -0.034770,  0.003282, -0.221106 )  4564.75931762
  WF centre and spread   12  (  0.083597,  0.097460, -0.389446 )  5064.30509131
  WF centre and spread   13  ( -0.011020,  0.015731, -0.211657 )  4445.39735155
  WF centre and spread   14  (  0.026770, -0.000741, -0.685462 )  4406.74935152
  WF centre and spread   15  ( -0.007822, -0.027814, -0.649095 )  4649.09606592
  WF centre and spread   16  (  0.084887,  0.098454, -0.320405 )  4481.62632702
  WF centre and spread   17  ( -0.010059,  0.012832,  0.113528 )  4708.86390091
  WF centre and spread   18  ( -0.038510,  0.118169, -0.486430 )  4554.21566298
  WF centre and spread   19  (  0.000472, -0.014350, -0.326249 )  4475.36711916
  WF centre and spread   20  (  0.057877,  0.078325, -0.345959 )  4765.37127568
  WF centre and spread   21  (  0.042520,  0.051423, -0.229830 )  4834.27581889
  WF centre and spread   22  (  0.122666,  0.041346, -0.412540 )  4574.55217062
  WF centre and spread   23  (  0.006037,  0.048182, -0.025069 )  4618.19201595
  WF centre and spread   24  ( -0.017353, -0.015988, -0.259940 )  4627.15466497
  WF centre and spread   25  (  0.063504, -0.015766, -0.212588 )  4594.12695098
  WF centre and spread   26  (  0.009044, -0.047118, -0.284434 )  4549.24826565
  WF centre and spread   27  (  0.016107, -0.032202, -0.202966 )  4492.75505714
  WF centre and spread   28  (  0.036277, -0.031050, -0.097595 )  4478.59263708
  WF centre and spread   29  (  0.027224, -0.047197, -0.663937 )  4696.99132708
  WF centre and spread   30  (  0.026314, -0.015760, -0.031668 )  4127.70995649
  WF centre and spread   31  ( -0.003889, -0.014501, -0.550727 )  4648.27007749
  WF centre and spread   32  (  0.003105, -0.017422, -0.194213 )  4755.00325510
  WF centre and spread   33  (  0.020629, -0.032341, -0.258816 )  4477.72147720
  WF centre and spread   34  (  0.024247, -0.021883, -0.518841 )  4661.24145019
  WF centre and spread   35  (  0.010004,  0.014396,  0.030892 )  4205.64791553
  WF centre and spread   36  (  0.064022, -0.047047, -0.448419 )  4819.23571176
  WF centre and spread   37  ( -0.008478, -0.016066, -0.002789 )  4208.28744258
  WF centre and spread   38  (  0.096655, -0.005606, -0.272448 )  4368.68743848
  WF centre and spread   39  ( -0.034145, -0.058195, -0.337333 )  4650.59079124
  WF centre and spread   40  (  0.051568,  0.108549, -0.135755 )  4425.06043443
  WF centre and spread   41  (  0.011594, -0.094373, -0.400627 )  4695.23563382
  WF centre and spread   42  (  0.071269,  0.125543, -0.608341 )  4724.49213688
  WF centre and spread   43  ( -0.200099, -0.100527,  0.026916 )  4668.10291334
  WF centre and spread   44  (  0.140779,  0.004130, -0.458910 )  4919.89505404
  WF centre and spread   45  (  0.035632, -0.038838, -0.022139 )  4648.94289939
  WF centre and spread   46  (  0.040544,  0.009977, -0.081878 )  4723.19786283
  WF centre and spread   47  ( -0.012182, -0.082217,  0.000439 )  4646.73274799
  WF centre and spread   48  ( -0.129883,  0.018167,  0.415426 )  4648.50133542
  WF centre and spread   49  (  0.204446, -0.049645, -0.392760 )  4665.11030933
  WF centre and spread   50  ( -0.041994,  0.124286,  0.270514 )  4807.71486015
  WF centre and spread   51  (  0.252208,  0.169460, -0.509843 )  4645.09953687
  WF centre and spread   52  ( -0.171312, -0.254336,  0.072415 )  4993.57663872
  WF centre and spread   53  (  0.100681, -0.058900, -0.022224 )  4973.74340705
  WF centre and spread   54  (  0.025797,  0.053129,  0.177792 )  4659.07968500
  WF centre and spread   55  (  0.072639,  0.026563, -0.864770 )  4902.18712606
  WF centre and spread   56  (  0.140070,  0.028444,  0.093279 )  4777.53066394
  WF centre and spread   57  ( -0.024023,  0.081813, -0.027080 )  4954.83127426
  WF centre and spread   58  ( -0.039498,  0.034134, -0.581051 )  4518.30061542
  WF centre and spread   59  ( -0.074301,  0.017943, -0.524592 )  4546.59759673
  WF centre and spread   60  (  0.056042,  0.226975, -0.117038 )  4937.70404472
  WF centre and spread   61  (  0.068079, -0.090824, -0.118961 )  4584.05792799
  WF centre and spread   62  ( -0.088937,  0.188181, -0.543257 )  4670.11435305
  WF centre and spread   63  (  0.115821,  0.055183, -0.428233 )  4883.37280158
  WF centre and spread   64  (  0.044646,  0.115591, -0.544433 )  4804.71094622
  WF centre and spread   65  ( -0.162591, -0.209335, -0.444506 )  4900.47669772
  WF centre and spread   66  (  0.156629,  0.045665, -0.481590 )  4575.50869165
  WF centre and spread   67  ( -0.059603, -0.091320, -0.306754 )  5034.23889649
  WF centre and spread   68  (  0.247382, -0.107600,  0.554066 )  4967.68595121
  WF centre and spread   69  (  0.016860,  0.024517, -0.028618 )  4552.84362540
  WF centre and spread   70  ( -0.038665,  0.099624,  0.083661 )  4801.25846873
  WF centre and spread   71  ( -0.016293, -0.177109, -0.644311 )  4786.29066183
  WF centre and spread   72  ( -0.034838,  0.029334, -0.311735 )  4351.18672257
  WF centre and spread   73  (  0.070672, -0.136341, -0.819534 )  4896.78315143
  WF centre and spread   74  (  0.020630,  0.281492, -0.134590 )  4658.91229114
  WF centre and spread   75  (  0.225021,  0.070975,  0.352547 )  4656.73592981
  WF centre and spread   76  (  0.026042,  0.048307, -0.187337 )  5031.54739457
  WF centre and spread   77  (  0.096958,  0.047835,  0.038939 )  4587.10078990
  WF centre and spread   78  ( -0.045032, -0.211274, -0.204180 )  4897.43040703
  WF centre and spread   79  ( -0.118363, -0.099077,  0.327548 )  4798.41935669
  WF centre and spread   80  (  0.045981,  0.003224, -0.281232 )  4799.14188559
  WF centre and spread   81  (  0.188657, -0.036601, -0.202858 )  4976.48900322
  WF centre and spread   82  ( -0.121383, -0.088196, -0.421017 )  4996.35391716
  WF centre and spread   83  (  0.077813,  0.046447, -0.411834 )  4944.37587988
  WF centre and spread   84  (  0.012857, -0.064999,  0.134558 )  4669.92475329
  WF centre and spread   85  ( -0.126867, -0.099827, -0.058750 )  4613.22414099
  WF centre and spread   86  ( -0.046035,  0.122060, -0.251143 )  4692.83899447
  WF centre and spread   87  ( -0.029343, -0.062457, -0.248363 )  4538.34155015
  WF centre and spread   88  ( -0.032806,  0.029215, -0.111061 )  4287.05143464
  WF centre and spread   89  ( -0.000743, -0.031686, -0.486352 )  4199.67456140
  WF centre and spread   90  (  0.054067,  0.000226, -0.376511 )  4465.09726435
  WF centre and spread   91  ( -0.013559,  0.047304, -0.563240 )  4674.64287552
  WF centre and spread   92  ( -0.059719,  0.010841, -0.401777 )  4352.52618374
  WF centre and spread   93  (  0.013976,  0.003508, -0.009780 )  4638.75921682
  WF centre and spread   94  (  0.088774, -0.036883, -0.530652 )  4547.01318148
  WF centre and spread   95  (  0.072833, -0.031725, -0.443089 )  4585.34280821
  WF centre and spread   96  ( -0.000395, -0.000282,  0.018086 )  4242.92057493
  WF centre and spread   97  ( -0.049435, -0.070995,  0.258061 )  4534.61973585
  WF centre and spread   98  ( -0.005243, -0.027428, -0.714780 )  4594.01512619
  WF centre and spread   99  (  0.137507,  0.077229, -0.262475 )  4478.51604537
  WF centre and spread  100  (  0.106113,  0.068046, -0.458213 )  4744.84617582
  WF centre and spread  101  (  0.017734,  0.061804, -0.252591 )  4089.49329163
  WF centre and spread  102  (  0.000232,  0.001542, -0.118765 )  4482.41613345
  WF centre and spread  103  (  0.004236, -0.046343,  0.019446 )  4848.63572100
  WF centre and spread  104  (  0.044538,  0.039813,  0.238574 )  4477.75894364
  WF centre and spread  105  ( -0.006540, -0.015611, -0.334568 )  4628.74509397
  WF centre and spread  106  (  0.148723, -0.050689,  0.369904 )  4625.03511663
  WF centre and spread  107  (  0.064043, -0.062667, -0.354125 )  4685.21171088
  WF centre and spread  108  (  0.063500, -0.021366,  0.108720 )  4426.52161393
  WF centre and spread  109  ( -0.005356, -0.002290, -0.118962 )  4494.67838148
  WF centre and spread  110  (  0.131345,  0.060134,  0.119790 )  4599.41658381
  WF centre and spread  111  (  0.104411,  0.159183, -0.744097 )  4958.77582749
  WF centre and spread  112  ( -0.076566, -0.049000,  0.188549 )  4577.72345324
  WF centre and spread  113  ( -0.083440,  0.046931,  0.071561 )  4605.69760352
  WF centre and spread  114  ( -0.022100,  0.012128,  0.082677 )  4651.30758668
  WF centre and spread  115  (  0.020179, -0.015655, -0.089720 )  4449.41356880
  WF centre and spread  116  (  0.039387,  0.025052,  0.499007 )  4326.05670784
  WF centre and spread  117  (  0.058463,  0.082832,  0.178133 )  4627.42170287
  WF centre and spread  118  (  0.045701,  0.014759,  0.245112 )  4817.28116883
  WF centre and spread  119  (  0.045314,  0.047206, -0.110798 )  4394.71849567
  WF centre and spread  120  ( -0.000145, -0.000078, -0.166353 )  4609.83330432
  WF centre and spread  121  (  0.009454, -0.017548,  0.302625 )  4573.75482174
  WF centre and spread  122  (  0.007129,  0.020445,  0.204396 )  4450.25978091
  WF centre and spread  123  (  0.059421,  0.093287,  0.260854 )  4670.50081379
  WF centre and spread  124  (  0.026839,  0.044785,  0.044378 )  4655.94307265
  WF centre and spread  125  (  0.010548,  0.030340,  0.206391 )  4606.23472496
  WF centre and spread  126  ( -0.010701,  0.013287,  0.017253 )  4915.10119042
  WF centre and spread  127  ( -0.003766,  0.031320,  0.070201 )  4744.78544678
  WF centre and spread  128  (  0.010086,  0.080370,  0.010807 )  5318.05027458
  Sum of centres and spreads (  2.833023,  0.954212,-24.071966 )594640.88629628
 
      2    -0.902E+03  4441.6229449476   594640.8862951507     854.80  <-- CONV
        O_D= 563507.8552449 O_OD=  30108.6329586 O_TOT= 594640.8862952 <-- SPRD
 Delta: O_D= -0.9004579E+03 O_OD= -0.2009511E+01 O_TOT= -0.9024674E+03 <-- DLTA
 ------------------------------------------------------------------------------
 Cycle:      3
  WF centre and spread    1  (  0.054721, -0.031493, -0.541370 )  4363.91259409
  WF centre and spread    2  (  0.003607, -0.006943,  0.037864 )  4418.58325704
  WF centre and spread    3  ( -0.139100,  0.014735, -0.296113 )  4765.57489984
  WF centre and spread    4  (  0.028390,  0.026651, -0.485247 )  4833.01058376
  WF centre and spread    5  (  0.085870, -0.006456, -0.190727 )  4213.78102904
  WF centre and spread    6  ( -0.001358,  0.109323, -0.677358 )  4676.53191703
  WF centre and spread    7  (  0.020523, -0.001693, -0.181508 )  4435.62210651
  WF centre and spread    8  ( -0.046514, -0.000506, -0.186855 )  4846.15584437
  WF centre and spread    9  (  0.047927, -0.003144, -0.269457 )  4794.43206973
  WF centre and spread   10  (  0.009949,  0.001297, -0.379710 )  4715.04322292
  WF centre and spread   11  ( -0.031290,  0.007227, -0.218312 )  4540.07699857
  WF centre and spread   12  (  0.095858,  0.108785, -0.391186 )  5030.48555706
  WF centre and spread   13  ( -0.005890,  0.015662, -0.214260 )  4425.75691238
  WF centre and spread   14  (  0.025467, -0.000016, -0.680705 )  4394.83010396
  WF centre and spread   15  (  0.036185,  0.005319, -0.653613 )  4623.25666539
  WF centre and spread   16  (  0.105682,  0.137239, -0.324675 )  4448.89998709
  WF centre and spread   17  ( -0.014644,  0.031443,  0.133093 )  4692.41237504
  WF centre and spread   18  ( -0.034861,  0.117363, -0.476993 )  4528.91628734
  WF centre and spread   19  (  0.002586, -0.009563, -0.315068 )  4451.56750548
  WF centre and spread   20  (  0.061214,  0.063953, -0.361990 )  4736.37136321
  WF centre and spread   21  (  0.039810,  0.051658, -0.228995 )  4809.12280046
  WF centre and spread   22  (  0.142803,  0.035790, -0.415466 )  4554.64248397
  WF centre and spread   23  ( -0.012782,  0.062206, -0.034137 )  4594.89370587
  WF centre and spread   24  ( -0.035756, -0.019002, -0.261408 )  4601.21064384
  WF centre and spread   25  (  0.063478, -0.015728, -0.212602 )  4580.55378047
  WF centre and spread   26  (  0.009073, -0.047163, -0.284439 )  4534.86636829
  WF centre and spread   27  (  0.016885, -0.031911, -0.201502 )  4476.40305502
  WF centre and spread   28  (  0.036393, -0.029560, -0.098638 )  4460.38499160
  WF centre and spread   29  (  0.027266, -0.047206, -0.664019 )  4681.84404569
  WF centre and spread   30  (  0.025910, -0.015586, -0.031555 )  4115.17043319
  WF centre and spread   31  ( -0.003769, -0.014794, -0.551062 )  4632.17356315
  WF centre and spread   32  (  0.004588, -0.018057, -0.193893 )  4734.68916097
  WF centre and spread   33  (  0.023219, -0.032548, -0.259571 )  4458.61366900
  WF centre and spread   34  (  0.015497,  0.000087, -0.523755 )  4643.34403273
  WF centre and spread   35  (  0.000953, -0.001293,  0.019502 )  4191.19730488
  WF centre and spread   36  (  0.064033, -0.047030, -0.440759 )  4805.28644132
  WF centre and spread   37  ( -0.009822, -0.015004, -0.002721 )  4194.74994529
  WF centre and spread   38  (  0.090544, -0.018717, -0.284207 )  4343.57281999
  WF centre and spread   39  ( -0.035394, -0.058222, -0.339293 )  4636.83246556
  WF centre and spread   40  (  0.059559,  0.125289, -0.131069 )  4400.98673822
  WF centre and spread   41  (  0.025743, -0.090079, -0.434239 )  4667.41412110
  WF centre and spread   42  (  0.051752,  0.110298, -0.624821 )  4681.43312650
  WF centre and spread   43  ( -0.177596, -0.090773,  0.019341 )  4627.58461601
  WF centre and spread   44  (  0.141961,  0.002112, -0.458143 )  4888.37985894
  WF centre and spread   45  (  0.048824, -0.027759, -0.035515 )  4620.64925067
  WF centre and spread   46  (  0.039407,  0.009776, -0.100244 )  4699.35189290
  WF centre and spread   47  (  0.023244, -0.134076, -0.005470 )  4609.58178565
  WF centre and spread   48  ( -0.125614,  0.050109,  0.369395 )  4614.28566139
  WF centre and spread   49  (  0.203787, -0.062234, -0.381922 )  4616.08946938
  WF centre and spread   50  ( -0.058921,  0.151543,  0.270212 )  4762.65269128
  WF centre and spread   51  (  0.253463,  0.148137, -0.587815 )  4599.53785384
  WF centre and spread   52  ( -0.216262, -0.238175,  0.104314 )  4952.63653908
  WF centre and spread   53  (  0.094545, -0.073035, -0.005462 )  4940.44385202
  WF centre and spread   54  (  0.021941,  0.045532,  0.148549 )  4615.17669464
  WF centre and spread   55  (  0.037671,  0.020542, -0.879471 )  4859.36194920
  WF centre and spread   56  (  0.138809,  0.032582,  0.046490 )  4723.05986755
  WF centre and spread   57  ( -0.037992,  0.087434, -0.034735 )  4886.37511851
  WF centre and spread   58  ( -0.004648,  0.031714, -0.613541 )  4461.75271061
  WF centre and spread   59  (  0.016311,  0.018846, -0.519670 )  4498.62738170
  WF centre and spread   60  (  0.071143,  0.209615, -0.094604 )  4888.26777932
  WF centre and spread   61  (  0.065691, -0.092604, -0.126969 )  4547.92071133
  WF centre and spread   62  ( -0.062421,  0.155282, -0.546436 )  4631.37991403
  WF centre and spread   63  (  0.126388,  0.053437, -0.451020 )  4838.35439193
  WF centre and spread   64  (  0.015136,  0.146308, -0.563488 )  4763.89163443
  WF centre and spread   65  ( -0.163739, -0.232114, -0.416351 )  4842.50144625
  WF centre and spread   66  (  0.159058,  0.046432, -0.492505 )  4510.89630929
  WF centre and spread   67  ( -0.056848, -0.079294, -0.511136 )  4973.40177992
  WF centre and spread   68  (  0.277775, -0.096273,  0.276810 )  4921.71576994
  WF centre and spread   69  (  0.036253,  0.032970, -0.026528 )  4491.12805519
  WF centre and spread   70  ( -0.013567,  0.102884,  0.083960 )  4747.70129966
  WF centre and spread   71  ( -0.022570, -0.172225, -0.658798 )  4746.37154980
  WF centre and spread   72  ( -0.014439,  0.037019, -0.350790 )  4304.26507409
  WF centre and spread   73  (  0.092933, -0.133073, -0.823064 )  4840.75071633
  WF centre and spread   74  (  0.022884,  0.260526, -0.111955 )  4608.02464429
  WF centre and spread   75  (  0.229096,  0.080807,  0.326147 )  4602.24071074
  WF centre and spread   76  (  0.008547,  0.060980, -0.143629 )  4978.51719995
  WF centre and spread   77  (  0.077403,  0.060281,  0.035000 )  4530.54593505
  WF centre and spread   78  ( -0.037036, -0.196402, -0.221282 )  4848.79100122
  WF centre and spread   79  ( -0.097059, -0.103203,  0.272554 )  4742.84535090
  WF centre and spread   80  (  0.065599, -0.015165, -0.331480 )  4751.99497838
  WF centre and spread   81  (  0.192562, -0.038246, -0.186590 )  4930.63418575
  WF centre and spread   82  ( -0.112556, -0.084978, -0.389281 )  4947.40960141
  WF centre and spread   83  (  0.074916,  0.033224, -0.364921 )  4929.22982094
  WF centre and spread   84  (  0.012871, -0.047044,  0.115168 )  4629.10674969
  WF centre and spread   85  ( -0.124604, -0.097118, -0.066365 )  4586.52234708
  WF centre and spread   86  ( -0.030664,  0.105501, -0.262553 )  4667.42436221
  WF centre and spread   87  ( -0.042914, -0.061221, -0.279374 )  4499.77500442
  WF centre and spread   88  ( -0.015208,  0.025575, -0.109222 )  4254.02960222
  WF centre and spread   89  ( -0.000813, -0.031503, -0.486270 )  4184.39502193
  WF centre and spread   90  (  0.053840,  0.000063, -0.377248 )  4446.12501519
  WF centre and spread   91  ( -0.006214,  0.042228, -0.552546 )  4653.20175224
  WF centre and spread   92  ( -0.052041,  0.023243, -0.403321 )  4326.81881904
  WF centre and spread   93  ( -0.010677, -0.022909, -0.004436 )  4613.30873305
  WF centre and spread   94  (  0.080744, -0.078152, -0.530985 )  4523.27163295
  WF centre and spread   95  (  0.063745, -0.016020, -0.445591 )  4570.32451231
  WF centre and spread   96  ( -0.000447, -0.000237,  0.017777 )  4230.45612293
  WF centre and spread   97  ( -0.034419, -0.069047,  0.205573 )  4506.13073398
  WF centre and spread   98  ( -0.004796, -0.029500, -0.698757 )  4568.02151998
  WF centre and spread   99  (  0.136183,  0.077024, -0.247692 )  4458.86774110
  WF centre and spread  100  (  0.097256,  0.067003, -0.459401 )  4729.76609561
  WF centre and spread  101  (  0.017969,  0.062108, -0.254148 )  4072.51470865
  WF centre and spread  102  (  0.000382,  0.001998, -0.135448 )  4451.99779065
  WF centre and spread  103  ( -0.011371, -0.056876,  0.044791 )  4810.09477182
  WF centre and spread  104  (  0.027224,  0.040085,  0.253702 )  4439.23934240
  WF centre and spread  105  ( -0.010061, -0.021524, -0.282577 )  4570.82926553
  WF centre and spread  106  (  0.169694, -0.074980,  0.388397 )  4604.71893995
  WF centre and spread  107  (  0.058109, -0.061686, -0.354632 )  4649.18970068
  WF centre and spread  108  (  0.059007, -0.022454,  0.127662 )  4403.64674670
  WF centre and spread  109  ( -0.013212, -0.001566, -0.108040 )  4445.52229374
  WF centre and spread  110  (  0.138904,  0.029488,  0.081956 )  4567.91495329
  WF centre and spread  111  (  0.089000,  0.137553, -0.738627 )  4921.41071055
  WF centre and spread  112  ( -0.072946, -0.048693,  0.172124 )  4548.93793196
  WF centre and spread  113  ( -0.099226,  0.047196,  0.075745 )  4582.43523115
  WF centre and spread  114  (  0.002488,  0.013510,  0.086050 )  4619.53852590
  WF centre and spread  115  (  0.004777, -0.032679, -0.075465 )  4426.18467297
  WF centre and spread  116  (  0.047270,  0.044518,  0.512922 )  4298.90539850
  WF centre and spread  117  (  0.059049,  0.075751,  0.171616 )  4605.50589221
  WF centre and spread  118  (  0.046437,  0.014579,  0.245246 )  4796.37591899
  WF centre and spread  119  (  0.045282,  0.047198, -0.092606 )  4377.31312331
  WF centre and spread  120  ( -0.000137, -0.000064, -0.184410 )  4602.01115834
  WF centre and spread  121  (  0.010015, -0.018718,  0.306282 )  4551.26857174
  WF centre and spread  122  (  0.003419,  0.015298,  0.250280 )  4425.84466790
  WF centre and spread  123  (  0.057086,  0.092844,  0.239589 )  4626.88814252
  WF centre and spread  124  (  0.025796,  0.045904,  0.044016 )  4631.77937894
  WF centre and spread  125  (  0.021594,  0.027518,  0.118304 )  4565.94823865
  WF centre and spread  126  ( -0.005987,  0.033423,  0.063970 )  4848.10823431
  WF centre and spread  127  ( -0.001752,  0.029784,  0.067663 )  4713.74981446
  WF centre and spread  128  (  0.010303,  0.080456,  0.011883 )  5293.69435256
  Sum of centres and spreads (  3.039341,  0.858934,-24.901882 )590528.04827474
 
      3    -0.411E+04  1778.7493370059   590528.0482737441     936.02  <-- CONV
        O_D= 559410.8659701 O_OD=  30092.7842120 O_TOT= 590528.0482737 <-- SPRD
 Delta: O_D= -0.4096989E+04 O_OD= -0.1584875E+02 O_TOT= -0.4112838E+04 <-- DLTA
 ------------------------------------------------------------------------------
 Cycle:      4
[...]
  Sum of centres and spreads ( -4.086884,  7.078690, 12.766241 )    36.28128146
 
  97200    -0.142E-12     0.0000028860       36.2812814470    3461.01  <-- CONV
        O_D=     17.9814117 O_OD=      0.0015408 O_TOT=     36.2812814 <-- SPRD
 Delta: O_D= -0.1385558E-12 O_OD= -0.8380015E-14 O_TOT= -0.1421085E-12 <-- DLTA
 ------------------------------------------------------------------------------

 Writing checkpoint file wannier90.chk... done

 Cycle:  97300
  WF centre and spread    1  ( -2.043442,  3.539345,  3.310346 )    18.15899387
  WF centre and spread    2  ( -2.043442,  3.539345,  9.455895 )    18.12228758
  Sum of centres and spreads ( -4.086884,  7.078690, 12.766241 )    36.28128146
 
  97300    -0.426E-13     0.0000028827       36.2812814470    3463.81  <-- CONV
        O_D=     17.9814117 O_OD=      0.0015408 O_TOT=     36.2812814 <-- SPRD
 Delta: O_D= -0.4618528E-13 O_OD= -0.1244664E-15 O_TOT= -0.4263256E-13 <-- DLTA
 ------------------------------------------------------------------------------

 Writing checkpoint file wannier90.chk... done

 Cycle:  97400
  WF centre and spread    1  ( -2.043442,  3.539345,  3.310346 )    18.15899387
  WF centre and spread    2  ( -2.043442,  3.539345,  9.455895 )    18.12228758
  Sum of centres and spreads ( -4.086884,  7.078690, 12.766241 )    36.28128146
 
  97400    -0.185E-12     0.0000028807       36.2812814470    3466.73  <-- CONV
        O_D=     17.9814117 O_OD=      0.0015408 O_TOT=     36.2812814 <-- SPRD
 Delta: O_D= -0.1811884E-12 O_OD= -0.1243580E-13 O_TOT= -0.1847411E-12 <-- DLTA
 ------------------------------------------------------------------------------

 Writing checkpoint file wannier90.chk... done

 Cycle:  97500
  WF centre and spread    1  ( -2.043442,  3.539345,  3.310346 )    18.15899387
  WF centre and spread    2  ( -2.043442,  3.539345,  9.455895 )    18.12228758
  Sum of centres and spreads ( -4.086884,  7.078690, 12.766241 )    36.28128146
 
  97500     0.924E-13     0.0000028777       36.2812814470    3469.56  <-- CONV
        O_D=     17.9814117 O_OD=      0.0015408 O_TOT=     36.2812814 <-- SPRD
 Delta: O_D=  0.9237056E-13 O_OD= -0.1277190E-15 O_TOT=  0.9237056E-13 <-- DLTA
 ------------------------------------------------------------------------------

 Writing checkpoint file wannier90.chk... done

 Cycle:  97600
  WF centre and spread    1  ( -2.043442,  3.539345,  3.310346 )    18.15899387
  WF centre and spread    2  ( -2.043442,  3.539345,  9.455895 )    18.12228758
  Sum of centres and spreads ( -4.086884,  7.078690, 12.766241 )    36.28128146
 
  97600    -0.142E-13     0.0000028744       36.2812814470    3472.30  <-- CONV
        O_D=     17.9814117 O_OD=      0.0015408 O_TOT=     36.2812814 <-- SPRD
 Delta: O_D= -0.7105427E-14 O_OD= -0.1580767E-15 O_TOT= -0.1421085E-13 <-- DLTA
 ------------------------------------------------------------------------------

 Writing checkpoint file wannier90.chk... done

 Cycle:  97700
  WF centre and spread    1  ( -2.043442,  3.539345,  3.310346 )    18.15899387
  WF centre and spread    2  ( -2.043442,  3.539345,  9.455895 )    18.12228758
  Sum of centres and spreads ( -4.086884,  7.078690, 12.766241 )    36.28128146
 
  97700     0.568E-13     0.0000028711       36.2812814470    3475.06  <-- CONV
        O_D=     17.9814117 O_OD=      0.0015408 O_TOT=     36.2812814 <-- SPRD
 Delta: O_D=  0.5329071E-13 O_OD= -0.6065027E-15 O_TOT=  0.5684342E-13 <-- DLTA
 ------------------------------------------------------------------------------

 Writing checkpoint file wannier90.chk... done

 Cycle:  97800
  WF centre and spread    1  ( -2.043442,  3.539345,  3.310346 )    18.15899387
  WF centre and spread    2  ( -2.043442,  3.539345,  9.455895 )    18.12228758
  Sum of centres and spreads ( -4.086884,  7.078690, 12.766241 )    36.28128146
 
  97800     0.114E-12     0.0000028687       36.2812814470    3477.96  <-- CONV
        O_D=     17.9814117 O_OD=      0.0015408 O_TOT=     36.2812814 <-- SPRD
 Delta: O_D=  0.1243450E-12 O_OD= -0.7448469E-15 O_TOT=  0.1136868E-12 <-- DLTA
 ------------------------------------------------------------------------------

 Writing checkpoint file wannier90.chk... done

 Cycle:  97900
  WF centre and spread    1  ( -2.043442,  3.539345,  3.310346 )    18.15899387
  WF centre and spread    2  ( -2.043442,  3.539345,  9.455895 )    18.12228758
  Sum of centres and spreads ( -4.086884,  7.078690, 12.766241 )    36.28128146
 
  97900     0.142E-13     0.0000028656       36.2812814470    3480.74  <-- CONV
        O_D=     17.9814117 O_OD=      0.0015408 O_TOT=     36.2812814 <-- SPRD
 Delta: O_D=  0.1421085E-13 O_OD= -0.1387779E-15 O_TOT=  0.1421085E-13 <-- DLTA
 ------------------------------------------------------------------------------

 Writing checkpoint file wannier90.chk... done

 Cycle:  98000
  WF centre and spread    1  ( -2.043442,  3.539345,  3.310346 )    18.15899387
  WF centre and spread    2  ( -2.043442,  3.539345,  9.455895 )    18.12228758
  Sum of centres and spreads ( -4.086884,  7.078690, 12.766241 )    36.28128146
 
  98000     0.924E-13     0.0000028626       36.2812814470    3483.53  <-- CONV
        O_D=     17.9814117 O_OD=      0.0015408 O_TOT=     36.2812814 <-- SPRD
 Delta: O_D=  0.9592327E-13 O_OD= -0.2417120E-14 O_TOT=  0.9237056E-13 <-- DLTA
 ------------------------------------------------------------------------------

 Writing checkpoint file wannier90.chk... done

 Cycle:  98100
  WF centre and spread    1  ( -2.043442,  3.539345,  3.310346 )    18.15899387
  WF centre and spread    2  ( -2.043442,  3.539345,  9.455895 )    18.12228758
  Sum of centres and spreads ( -4.086884,  7.078690, 12.766241 )    36.28128146
 
  98100    -0.263E-12     0.0000028592       36.2812814470    3486.27  <-- CONV
        O_D=     17.9814117 O_OD=      0.0015408 O_TOT=     36.2812814 <-- SPRD
 Delta: O_D= -0.2557954E-12 O_OD= -0.8165343E-14 O_TOT= -0.2629008E-12 <-- DLTA
 ------------------------------------------------------------------------------

 Writing checkpoint file wannier90.chk... done

 Cycle:  98200
  WF centre and spread    1  ( -2.043442,  3.539345,  3.310346 )    18.15899387
  WF centre and spread    2  ( -2.043442,  3.539345,  9.455895 )    18.12228758
  Sum of centres and spreads ( -4.086884,  7.078690, 12.766241 )    36.28128146
 
  98200     0.213E-13     0.0000028562       36.2812814470    3489.07  <-- CONV
        O_D=     17.9814117 O_OD=      0.0015408 O_TOT=     36.2812814 <-- SPRD
 Delta: O_D=  0.2131628E-13 O_OD= -0.8239937E-17 O_TOT=  0.2131628E-13 <-- DLTA
 ------------------------------------------------------------------------------

 Writing checkpoint file wannier90.chk... done

 Cycle:  98300
  WF centre and spread    1  ( -2.043442,  3.539345,  3.310346 )    18.15899387
  WF centre and spread    2  ( -2.043442,  3.539345,  9.455895 )    18.12228758
  Sum of centres and spreads ( -4.086884,  7.078690, 12.766241 )    36.28128146
 
  98300    -0.426E-13     0.0000028529       36.2812814470    3491.87  <-- CONV
        O_D=     17.9814117 O_OD=      0.0015408 O_TOT=     36.2812814 <-- SPRD
 Delta: O_D= -0.2486900E-13 O_OD= -0.1218969E-13 O_TOT= -0.4263256E-13 <-- DLTA
 ------------------------------------------------------------------------------

 Writing checkpoint file wannier90.chk... done

 Cycle:  98400
  WF centre and spread    1  ( -2.043442,  3.539345,  3.310346 )    18.15899387
  WF centre and spread    2  ( -2.043442,  3.539345,  9.455895 )    18.12228758
  Sum of centres and spreads ( -4.086884,  7.078690, 12.766241 )    36.28128146
 
  98400     0.568E-13     0.0000028496       36.2812814470    3494.65  <-- CONV
        O_D=     17.9814117 O_OD=      0.0015408 O_TOT=     36.2812814 <-- SPRD
 Delta: O_D=  0.6394885E-13 O_OD= -0.6930220E-15 O_TOT=  0.5684342E-13 <-- DLTA
 ------------------------------------------------------------------------------

 Writing checkpoint file wannier90.chk... done

 Cycle:  98500
  WF centre and spread    1  ( -2.043442,  3.539345,  3.310346 )    18.15899387
  WF centre and spread    2  ( -2.043442,  3.539345,  9.455895 )    18.12228758
  Sum of centres and spreads ( -4.086884,  7.078690, 12.766241 )    36.28128146
 
  98500    -0.426E-13     0.0000028470       36.2812814470    3497.45  <-- CONV
        O_D=     17.9814117 O_OD=      0.0015408 O_TOT=     36.2812814 <-- SPRD
 Delta: O_D= -0.4263256E-13 O_OD= -0.7437627E-16 O_TOT= -0.4263256E-13 <-- DLTA
 ------------------------------------------------------------------------------

 Writing checkpoint file wannier90.chk... done

 Cycle:  98600
  WF centre and spread    1  ( -2.043442,  3.539345,  3.310346 )    18.15899387
  WF centre and spread    2  ( -2.043442,  3.539345,  9.455895 )    18.12228758
  Sum of centres and spreads ( -4.086884,  7.078690, 12.766241 )    36.28128146
 
  98600    -0.995E-13     0.0000028439       36.2812814470    3500.21  <-- CONV
        O_D=     17.9814117 O_OD=      0.0015408 O_TOT=     36.2812814 <-- SPRD
 Delta: O_D= -0.8881784E-13 O_OD= -0.1212160E-13 O_TOT= -0.9947598E-13 <-- DLTA
 ------------------------------------------------------------------------------

 Writing checkpoint file wannier90.chk... done

 Cycle:  98700
  WF centre and spread    1  ( -2.043442,  3.539345,  3.310346 )    18.15899387
  WF centre and spread    2  ( -2.043442,  3.539345,  9.455895 )    18.12228758
  Sum of centres and spreads ( -4.086884,  7.078690, 12.766241 )    36.28128146
 
  98700     0.782E-13     0.0000028404       36.2812814470    3502.95  <-- CONV
        O_D=     17.9814117 O_OD=      0.0015408 O_TOT=     36.2812814 <-- SPRD
 Delta: O_D=  0.7460699E-13 O_OD= -0.1556914E-15 O_TOT=  0.7815970E-13 <-- DLTA
 ------------------------------------------------------------------------------

 Writing checkpoint file wannier90.chk... done

 Cycle:  98800
  WF centre and spread    1  ( -2.043442,  3.539345,  3.310346 )    18.15899387
  WF centre and spread    2  ( -2.043442,  3.539345,  9.455895 )    18.12228758
  Sum of centres and spreads ( -4.086884,  7.078690, 12.766241 )    36.28128146
 
  98800    -0.853E-13     0.0000028371       36.2812814470    3505.69  <-- CONV
        O_D=     17.9814117 O_OD=      0.0015408 O_TOT=     36.2812814 <-- SPRD
 Delta: O_D= -0.7460699E-13 O_OD= -0.4024125E-14 O_TOT= -0.8526513E-13 <-- DLTA
 ------------------------------------------------------------------------------

 Writing checkpoint file wannier90.chk... done

 Cycle:  98900
  WF centre and spread    1  ( -2.043442,  3.539345,  3.310346 )    18.15899387
  WF centre and spread    2  ( -2.043442,  3.539345,  9.455895 )    18.12228758
  Sum of centres and spreads ( -4.086884,  7.078690, 12.766241 )    36.28128146
 
  98900     0.114E-12     0.0000028341       36.2812814470    3508.49  <-- CONV
        O_D=     17.9814117 O_OD=      0.0015408 O_TOT=     36.2812814 <-- SPRD
 Delta: O_D=  0.1136868E-12 O_OD= -0.6490034E-15 O_TOT=  0.1136868E-12 <-- DLTA
 ------------------------------------------------------------------------------

 Writing checkpoint file wannier90.chk... done

 Cycle:  99000
  WF centre and spread    1  ( -2.043442,  3.539345,  3.310346 )    18.15899387
  WF centre and spread    2  ( -2.043442,  3.539345,  9.455895 )    18.12228758
  Sum of centres and spreads ( -4.086884,  7.078690, 12.766241 )    36.28128146
 
  99000    -0.853E-13     0.0000028314       36.2812814470    3511.30  <-- CONV
        O_D=     17.9814117 O_OD=      0.0015408 O_TOT=     36.2812814 <-- SPRD
 Delta: O_D= -0.7815970E-13 O_OD= -0.7996642E-14 O_TOT= -0.8526513E-13 <-- DLTA
 ------------------------------------------------------------------------------

 Writing checkpoint file wannier90.chk... done

 Cycle:  99100
  WF centre and spread    1  ( -2.043442,  3.539345,  3.310346 )    18.15899387
  WF centre and spread    2  ( -2.043442,  3.539345,  9.455895 )    18.12228759
  Sum of centres and spreads ( -4.086884,  7.078690, 12.766241 )    36.28128146
 
  99100     0.995E-13     0.0000028286       36.2812814470    3514.16  <-- CONV
        O_D=     17.9814117 O_OD=      0.0015408 O_TOT=     36.2812814 <-- SPRD
 Delta: O_D=  0.9237056E-13 O_OD= -0.5952270E-15 O_TOT=  0.9947598E-13 <-- DLTA
 ------------------------------------------------------------------------------

 Writing checkpoint file wannier90.chk... done

 Cycle:  99200
  WF centre and spread    1  ( -2.043442,  3.539345,  3.310346 )    18.15899387
  WF centre and spread    2  ( -2.043442,  3.539345,  9.455895 )    18.12228759
  Sum of centres and spreads ( -4.086884,  7.078690, 12.766241 )    36.28128146
 
  99200    -0.711E-14     0.0000028259       36.2812814470    3516.97  <-- CONV
        O_D=     17.9814117 O_OD=      0.0015408 O_TOT=     36.2812814 <-- SPRD
 Delta: O_D= -0.3552714E-14 O_OD= -0.1436351E-14 O_TOT= -0.7105427E-14 <-- DLTA
 ------------------------------------------------------------------------------

 Writing checkpoint file wannier90.chk... done

 Cycle:  99300
  WF centre and spread    1  ( -2.043442,  3.539345,  3.310346 )    18.15899387
  WF centre and spread    2  ( -2.043442,  3.539345,  9.455895 )    18.12228759
  Sum of centres and spreads ( -4.086884,  7.078690, 12.766241 )    36.28128146
 
  99300     0.497E-13     0.0000028231       36.2812814470    3519.81  <-- CONV
        O_D=     17.9814117 O_OD=      0.0015408 O_TOT=     36.2812814 <-- SPRD
 Delta: O_D=  0.4618528E-13 O_OD= -0.2808084E-15 O_TOT=  0.4973799E-13 <-- DLTA
 ------------------------------------------------------------------------------

 Writing checkpoint file wannier90.chk... done

 Cycle:  99400
  WF centre and spread    1  ( -2.043442,  3.539345,  3.310346 )    18.15899387
  WF centre and spread    2  ( -2.043442,  3.539345,  9.455895 )    18.12228759
  Sum of centres and spreads ( -4.086884,  7.078690, 12.766241 )    36.28128146
 
  99400     0.213E-13     0.0000028204       36.2812814470    3522.60  <-- CONV
        O_D=     17.9814117 O_OD=      0.0015408 O_TOT=     36.2812814 <-- SPRD
 Delta: O_D=  0.1776357E-13 O_OD= -0.4206704E-16 O_TOT=  0.2131628E-13 <-- DLTA
 ------------------------------------------------------------------------------

 Writing checkpoint file wannier90.chk... done

 Cycle:  99500
  WF centre and spread    1  ( -2.043442,  3.539345,  3.310346 )    18.15899387
  WF centre and spread    2  ( -2.043442,  3.539345,  9.455895 )    18.12228759
  Sum of centres and spreads ( -4.086884,  7.078690, 12.766241 )    36.28128146
 
  99500     0.192E-12     0.0000028178       36.2812814470    3525.43  <-- CONV
        O_D=     17.9814117 O_OD=      0.0015408 O_TOT=     36.2812814 <-- SPRD
 Delta: O_D=  0.1882938E-12 O_OD= -0.2690990E-15 O_TOT=  0.1918465E-12 <-- DLTA
 ------------------------------------------------------------------------------

 Writing checkpoint file wannier90.chk... done

 Cycle:  99600
  WF centre and spread    1  ( -2.043442,  3.539345,  3.310346 )    18.15899387
  WF centre and spread    2  ( -2.043442,  3.539345,  9.455895 )    18.12228759
  Sum of centres and spreads ( -4.086884,  7.078690, 12.766241 )    36.28128146
 
  99600     0.426E-13     0.0000028147       36.2812814470    3528.22  <-- CONV
        O_D=     17.9814117 O_OD=      0.0015408 O_TOT=     36.2812814 <-- SPRD
 Delta: O_D=  0.4263256E-13 O_OD= -0.1587272E-15 O_TOT=  0.4263256E-13 <-- DLTA
 ------------------------------------------------------------------------------

 Writing checkpoint file wannier90.chk... done

 Cycle:  99700
  WF centre and spread    1  ( -2.043442,  3.539345,  3.310346 )    18.15899387
  WF centre and spread    2  ( -2.043442,  3.539345,  9.455895 )    18.12228759
  Sum of centres and spreads ( -4.086884,  7.078690, 12.766241 )    36.28128146
 
  99700    -0.639E-13     0.0000028115       36.2812814470    3530.99  <-- CONV
        O_D=     17.9814117 O_OD=      0.0015408 O_TOT=     36.2812814 <-- SPRD
 Delta: O_D= -0.6394885E-13 O_OD= -0.3940641E-14 O_TOT= -0.6394885E-13 <-- DLTA
 ------------------------------------------------------------------------------

 Writing checkpoint file wannier90.chk... done

 Cycle:  99800
  WF centre and spread    1  ( -2.043442,  3.539345,  3.310346 )    18.15899387
  WF centre and spread    2  ( -2.043442,  3.539345,  9.455895 )    18.12228759
  Sum of centres and spreads ( -4.086884,  7.078690, 12.766241 )    36.28128146
 
  99800     0.227E-12     0.0000028090       36.2812814470    3533.85  <-- CONV
        O_D=     17.9814117 O_OD=      0.0015408 O_TOT=     36.2812814 <-- SPRD
 Delta: O_D=  0.2238210E-12 O_OD= -0.9868408E-15 O_TOT=  0.2273737E-12 <-- DLTA
 ------------------------------------------------------------------------------

 Writing checkpoint file wannier90.chk... done

 Cycle:  99900
  WF centre and spread    1  ( -2.043442,  3.539345,  3.310346 )    18.15899387
  WF centre and spread    2  ( -2.043442,  3.539345,  9.455895 )    18.12228759
  Sum of centres and spreads ( -4.086884,  7.078690, 12.766241 )    36.28128146
 
  99900    -0.426E-13     0.0000028064       36.2812814470    3536.71  <-- CONV
        O_D=     17.9814117 O_OD=      0.0015408 O_TOT=     36.2812814 <-- SPRD
 Delta: O_D= -0.4263256E-13 O_OD= -0.1426810E-15 O_TOT= -0.4263256E-13 <-- DLTA
 ------------------------------------------------------------------------------

 Writing checkpoint file wannier90.chk... done

 Cycle: 100000
  WF centre and spread    1  ( -2.043442,  3.539345,  3.310346 )    18.15899387
  WF centre and spread    2  ( -2.043442,  3.539345,  9.455895 )    18.12228759
  Sum of centres and spreads ( -4.086884,  7.078690, 12.766241 )    36.28128146
 
 100000    -0.711E-14     0.0000028036       36.2812814470    3539.58  <-- CONV
        O_D=     17.9814117 O_OD=      0.0015408 O_TOT=     36.2812814 <-- SPRD
 Delta: O_D= -0.7105427E-14 O_OD= -0.1669671E-16 O_TOT= -0.7105427E-14 <-- DLTA
 ------------------------------------------------------------------------------

 Writing checkpoint file wannier90.chk... done

 Final State
  WF centre and spread    1  ( -2.043442,  3.539345,  3.310346 )    18.15899387
  WF centre and spread    2  ( -2.043442,  3.539345,  9.455895 )    18.12228759
  Sum of centres and spreads ( -4.086884,  7.078690, 12.766241 )    36.28128146
 
         Spreads (Ang^2)       Omega I      =    18.298328985
        ================       Omega D      =    17.981411703
                               Omega OD     =     0.001540759
    Final Spread (Ang^2)       Omega Total  =    36.281281447
 ------------------------------------------------------------------------------
  Wannier centres written to file wannier90_centres.xyz

 Writing checkpoint file wannier90.chk... done

 Time for wannierise         2708.099 (sec)
 *---------------------------------------------------------------------------*
 |                               PLOTTING                                    |
 *---------------------------------------------------------------------------*
 
 
 Calculating interpolated band-structure
 
 Time to calculate interpolated band structure       0.074 (sec)
 
 Time for plotting              0.532 (sec)
 Total Execution Time        2719.928 (sec)

 *===========================================================================*
 |                             TIMING INFORMATION                            |
 *===========================================================================*
 |    Tag                                                Ncalls      Time (s)|
 |---------------------------------------------------------------------------|
 |kmesh: get                                        :         2         1.130|
 |dis: main                                         :         1         8.305|
 |wann: main                                        :         1      2708.089|
 |plot: main                                        :         1         0.532|
 *---------------------------------------------------------------------------*
 
 All done: wannier90 exiting
