
     Program PWSCF v.7.3.1 starts on  7May2025 at 23:17:42 

     This program is part of the open-source Quantum ESPRESSO suite
     for quantum simulation of materials; please cite
         "P. Giannozzi et al., J. Phys.:Condens. Matter 21 395502 (2009);
         "P. Giannozzi et al., J. Phys.:Condens. Matter 29 465901 (2017);
         "P. Giannozzi et al., J. Chem. Phys. 152 154105 (2020);
          URL http://www.quantum-espresso.org", 
     in publications or presentations arising from this work. More details at
     http://www.quantum-espresso.org/quote

     Parallel version (MPI & OpenMP), running on     384 processor cores
     Number of MPI processes:               384
     Threads/MPI process:                     1

     MPI processes distributed on     2 nodes
     344284 MiB available memory on the printing compute node when the environment starts

     Waiting for input...
     Reading input from standard input
Warning: card &CELL ignored
Warning: card / ignored
Warning: card &FCP ignored
Warning: card / ignored
Warning: card &RISM ignored
Warning: card / ignored

     Current dimensions of program PWSCF are:
     Max number of different atomic species (ntypx) = 10
     Max number of k-points (npk) =  40000
     Max angular momentum in pseudopotentials (lmaxx) =  4

     File ./out/Nb3I8.update deleted, as requested

     File ./out/Nb3I8.md deleted, as requested

     File ./out/Nb3I8.bfgs deleted, as requested

     IMPORTANT: XC functional enforced from input :
     Exchange-correlation= PBE
                           (   1   4   3   4   0   0   0)
     Any further DFT definition will be discarded
     Please, verify this is what you really want

     Message from routine setup:
     using ibrav=0 with symmetry is DISCOURAGED, use correct ibrav instead
     Message from routine setup:
     Dynamics, you should have no symmetries

     K-points division:     npool     =      16
     R & G space division:  proc/nbgrp/npool/nimage =      24
     Subspace diagonalization in iterative solution of the eigenvalue problem:
     one sub-group per band group will be used
     ELPA distributed-memory algorithm (size of sub-group:  2*  2 procs)

     Message from routine divide_et_impera:
     suboptimal parallelization: some nodes have no k-points

     Parallelization info
     --------------------
     sticks:   dense  smooth     PW     G-vecs:    dense   smooth      PW
     Min         238     238     63                65816    65816    8973
     Max         239     239     64                65835    65835    8984
     Sum        5731    5731   1519              1579823  1579823  215427

     Using Slab Decomposition



     bravais-lattice index     =            0
     lattice parameter (alat)  =      14.4200  a.u.
     unit-cell volume          =   11694.9391 (a.u.)^3
     number of atoms/cell      =           22
     number of atomic types    =            2
     number of electrons       =       350.00
     number of Kohn-Sham states=          210
     kinetic-energy cutoff     =     100.0000  Ry
     charge density cutoff     =     400.0000  Ry
     scf convergence threshold =      1.0E-12
     mixing beta               =       0.7000
     number of iterations used =            8  plain     mixing
     energy convergence thresh.=      1.0E-04
     force convergence thresh. =      1.0E-06
     Exchange-correlation= PBE
                           (   1   4   3   4   0   0   0)
     nstep                     =           50


     celldm(1)=  14.419985  celldm(2)=   0.000000  celldm(3)=   0.000000
     celldm(4)=   0.000000  celldm(5)=   0.000000  celldm(6)=   0.000000

     crystal axes: (cart. coord. in units of alat)
               a(1) = (   0.866025   0.500000   0.000000 )  
               a(2) = (  -0.866025   0.500000   0.000000 )  
               a(3) = (   0.000000   0.000000   4.503735 )  

     reciprocal axes: (cart. coord. in units 2 pi/alat)
               b(1) = (  0.577350  1.000000 -0.000000 )  
               b(2) = ( -0.577350  1.000000  0.000000 )  
               b(3) = (  0.000000 -0.000000  0.222038 )  


     PseudoPot. # 1 for Nb read from file:
     /scratch-shared/mroesner/Nb3X8_cDFPT/pp/Nb_ONCV_PBE-1.2.upf
     MD5 check sum: 2c750ac0b6910ff4cf0ab5f6c4124a64
     Pseudo is Norm-conserving, Zval = 13.0
     Generated using ONCVPSP code by D. R. Hamann
     Using radial grid of  602 points,  6 beta functions with: 
                l(1) =   0
                l(2) =   0
                l(3) =   1
                l(4) =   1
                l(5) =   2
                l(6) =   2

     PseudoPot. # 2 for I  read from file:
     /scratch-shared/mroesner/Nb3X8_cDFPT/pp/I_ONCV_PBE-1.2.upf
     MD5 check sum: 8277ef51204d8074ead4596f3b37a2aa
     Pseudo is Norm-conserving, Zval = 17.0
     Generated using ONCVPSP code by D. R. Hamann
     Using radial grid of  602 points,  6 beta functions with: 
                l(1) =   0
                l(2) =   0
                l(3) =   1
                l(4) =   1
                l(5) =   2
                l(6) =   2

     atomic species   valence    mass     pseudopotential
     Nb               13.00    92.90637     Nb( 1.00)
     I                17.00   126.90447     I ( 1.00)

      6 Sym. Ops. (no inversion) found


                                    s                        frac. trans.

      isym =  1     identity                                     

 cryst.   s( 1) = (     1          0          0      )
                  (     0          1          0      )
                  (     0          0          1      )

 cart.    s( 1) = (  1.0000000  0.0000000  0.0000000 )
                  (  0.0000000  1.0000000  0.0000000 )
                  (  0.0000000  0.0000000  1.0000000 )


      isym =  2     120 deg rotation - cryst. axis [0,0,1]       

 cryst.   s( 2) = (     0          1          0      )
                  (    -1         -1          0      )
                  (     0          0          1      )

 cart.    s( 2) = ( -0.5000000 -0.8660254  0.0000000 )
                  (  0.8660254 -0.5000000  0.0000000 )
                  (  0.0000000  0.0000000  1.0000000 )


      isym =  3     120 deg rotation - cryst. axis [0,0,-1]      

 cryst.   s( 3) = (    -1         -1          0      )
                  (     1          0          0      )
                  (     0          0          1      )

 cart.    s( 3) = ( -0.5000000  0.8660254  0.0000000 )
                  ( -0.8660254 -0.5000000  0.0000000 )
                  (  0.0000000  0.0000000  1.0000000 )


      isym =  4     inv. 180 deg rotation - cart. axis [0,1,0]   

 cryst.   s( 4) = (     0         -1          0      )
                  (    -1          0          0      )
                  (     0          0          1      )

 cart.    s( 4) = (  1.0000000  0.0000000  0.0000000 )
                  (  0.0000000 -1.0000000  0.0000000 )
                  (  0.0000000  0.0000000  1.0000000 )


      isym =  5     inv. 180 deg rotation - cryst. axis [1,-1,0] 

 cryst.   s( 5) = (     1          1          0      )
                  (     0         -1          0      )
                  (     0          0          1      )

 cart.    s( 5) = ( -0.5000000  0.8660254  0.0000000 )
                  (  0.8660254  0.5000000  0.0000000 )
                  (  0.0000000  0.0000000  1.0000000 )


      isym =  6     inv. 180 deg rotation - cryst. axis [2,1,0]  

 cryst.   s( 6) = (    -1          0          0      )
                  (     1          1          0      )
                  (     0          0          1      )

 cart.    s( 6) = ( -0.5000000 -0.8660254  0.0000000 )
                  ( -0.8660254  0.5000000  0.0000000 )
                  (  0.0000000  0.0000000  1.0000000 )


   Cartesian axes

     site n.     atom                  positions (alat units)
         1        Nb     tau(   1) = (  -1.2164679   0.5000000   1.3528985  )
         2        Nb     tau(   2) = (  -0.6908042   0.1965079   1.3528985  )
         3        Nb     tau(   3) = (  -0.6908042   0.8034921   1.3528985  )
         4        Nb     tau(   4) = (   0.6391177   0.5000000   0.4485939  )
         5        Nb     tau(   5) = (   0.1134539   0.8034921   0.4485939  )
         6        Nb     tau(   6) = (   0.1134539   0.1965079   0.4485939  )
         7        I      tau(   7) = (   0.2886751   0.5000000   1.0717580  )
         8        I      tau(   8) = (  -0.5701471   0.5000000   1.1527723  )
         9        I      tau(   9) = (  -0.1479392   0.2562381   1.1527723  )
        10        I      tau(  10) = (  -0.1479392   0.7437619   1.1527723  )
        11        I      tau(  11) = (  -0.8660254   0.5000000   1.5444513  )
        12        I      tau(  12) = (   0.0011534   0.5000000   1.6044897  )
        13        I      tau(  13) = (  -0.4335894   0.7509988   1.6044897  )
        14        I      tau(  14) = (  -0.4335894   0.2490012   1.6044897  )
        15        I      tau(  15) = (  -0.5785037   0.5000000   0.1969996  )
        16        I      tau(  16) = (  -0.1437608   0.2490011   0.1969996  )
        17        I      tau(  17) = (  -0.1437608   0.7509989   0.1969996  )
        18        I      tau(  18) = (   0.2886751   0.5000000   0.2570285  )
        19        I      tau(  19) = (  -0.0071968   0.5000000   0.6487337  )
        20        I      tau(  20) = (  -0.4294143   0.7437673   0.6487337  )
        21        I      tau(  21) = (  -0.4294143   0.2562327   0.6487337  )
        22        I      tau(  22) = (  -0.8660254   0.5000000   0.7297353  )

     --------------------------------------------
     DFT-D3 Dispersion Correction (no 3-body):
     --------------------------------------------
       Reference C6 values for interpolation: 

         atom   Coordination number   C6
         Nb         0.000          2950.50
         Nb         1.954          1161.16
         Nb         2.922           857.79
         I          0.000           703.93
         I          0.997           717.00

       Values used:

         atom   Coordination number  R0_AB[au]  C6      C8
         Nb         7.908            3.647    857.79 111659.18
         Nb         7.908            3.647    857.79 111659.18
         Nb         7.908            3.647    857.79 111659.18
         Nb         7.907            3.647    857.79 111659.18
         Nb         7.907            3.647    857.79 111659.18
         Nb         7.907            3.647    857.79 111659.18
         I          4.710            3.532    717.00  65856.01
         I          4.071            3.532    717.00  65856.01
         I          4.071            3.532    717.00  65856.01
         I          4.071            3.532    717.00  65856.01
         I          4.873            3.532    717.00  65856.01
         I          3.592            3.532    717.00  65856.01
         I          3.592            3.532    717.00  65856.01
         I          3.592            3.532    717.00  65856.01
         I          3.592            3.532    717.00  65856.01
         I          3.592            3.532    717.00  65856.01
         I          3.592            3.532    717.00  65856.01
         I          4.873            3.532    717.00  65856.01
         I          4.071            3.532    717.00  65856.01
         I          4.071            3.532    717.00  65856.01
         I          4.071            3.532    717.00  65856.01
         I          4.710            3.532    717.00  65856.01

         Molecular C6 ( Ry / a.u.^6 ) =    363889.37


   Crystallographic axes

     site n.     atom                  positions (cryst. coord.)
         1        Nb     tau(   1) = ( -0.2023280  1.2023280  0.3003947  )
         2        Nb     tau(   2) = ( -0.2023280  0.5953439  0.3003947  )
         3        Nb     tau(   3) = (  0.4046561  1.2023280  0.3003947  )
         4        Nb     tau(   4) = (  0.8689948  0.1310052  0.0996048  )
         5        Nb     tau(   5) = (  0.8689948  0.7379895  0.0996048  )
         6        Nb     tau(   6) = (  0.2620105  0.1310052  0.0996048  )
         7        I      tau(   7) = (  0.6666667  0.3333333  0.2379709  )
         8        I      tau(   8) = (  0.1708254  0.8291746  0.2559591  )
         9        I      tau(   9) = (  0.1708254  0.3416509  0.2559591  )
        10        I      tau(  10) = (  0.6583491  0.8291746  0.2559591  )
        11        I      tau(  11) = (  0.0000000  1.0000000  0.3429267  )
        12        I      tau(  12) = (  0.5006659  0.4993341  0.3562575  )
        13        I      tau(  13) = (  0.5006659  1.0013318  0.3562575  )
        14        I      tau(  14) = ( -0.0013318  0.4993341  0.3562575  )
        15        I      tau(  15) = (  0.1660007  0.8339993  0.0437414  )
        16        I      tau(  16) = (  0.1660007  0.3320015  0.0437414  )
        17        I      tau(  17) = (  0.6679985  0.8339993  0.0437414  )
        18        I      tau(  18) = (  0.6666667  0.3333333  0.0570701  )
        19        I      tau(  19) = (  0.4958449  0.5041551  0.1440435  )
        20        I      tau(  20) = (  0.4958449  0.9916898  0.1440435  )
        21        I      tau(  21) = (  0.0083102  0.5041551  0.1440435  )
        22        I      tau(  22) = (  0.0000000  1.0000000  0.1620289  )

     number of k points=     7  Marzari-Vanderbilt smearing, width (Ry)=  0.0037
                       cart. coord. in units 2pi/alat
        k(    1) = (   0.0000000   0.0000000   0.0000000), wk =   0.0555556
        k(    2) = (  -0.0962250   0.1666667   0.0000000), wk =   0.3333333
        k(    3) = (  -0.1924501   0.3333333   0.0000000), wk =   0.3333333
        k(    4) = (   0.2886751  -0.5000000   0.0000000), wk =   0.1666667
        k(    5) = (  -0.0000000   0.3333333   0.0000000), wk =   0.3333333
        k(    6) = (  -0.0962250   0.5000000   0.0000000), wk =   0.6666667
        k(    7) = (  -0.0000000   0.6666667   0.0000000), wk =   0.1111111

                       cryst. coord.
        k(    1) = (   0.0000000   0.0000000   0.0000000), wk =   0.0555556
        k(    2) = (  -0.0000000   0.1666667   0.0000000), wk =   0.3333333
        k(    3) = (  -0.0000000   0.3333333   0.0000000), wk =   0.3333333
        k(    4) = (   0.0000000  -0.5000000   0.0000000), wk =   0.1666667
        k(    5) = (   0.1666667   0.1666667   0.0000000), wk =   0.3333333
        k(    6) = (   0.1666667   0.3333333   0.0000000), wk =   0.6666667
        k(    7) = (   0.3333333   0.3333333   0.0000000), wk =   0.1111111

     Dense  grid:  1579823 G-vectors     FFT dimensions: (  96,  96, 432)

     Dynamical RAM for                 wfc:      26.37 MB

     Dynamical RAM for     wfc (w. buffer):      26.37 MB

     Dynamical RAM for           str. fact:       2.01 MB

     Dynamical RAM for           local pot:       0.00 MB

     Dynamical RAM for          nlocal pot:      49.72 MB

     Dynamical RAM for                qrad:       3.21 MB

     Dynamical RAM for          rho,v,vnew:       6.81 MB

     Dynamical RAM for               rhoin:       2.27 MB

     Dynamical RAM for            rho*nmix:      16.07 MB

     Dynamical RAM for           G-vectors:       4.27 MB

     Dynamical RAM for          h,s,v(r/c):       2.02 MB

     Dynamical RAM for          <psi|beta>:       1.27 MB

     Dynamical RAM for                 psi:      52.73 MB

     Dynamical RAM for                hpsi:      52.73 MB

     Dynamical RAM for      wfcinit/wfcrot:      53.74 MB

     Estimated static dynamical RAM per process >     103.99 MB

     Estimated max dynamical RAM per process >     228.81 MB

     Estimated total dynamical RAM >      80.15 GB

     Initial potential from superposition of free atoms

     starting charge     348.9150, renormalised to     350.0000

     negative rho (up, down):  2.148E-03 0.000E+00
     Starting wfcs are random

     total cpu time spent up to now is        4.7 secs

     per-process dynamical memory:   265.5 Mb

     Self-consistent Calculation

     iteration #  1     ecut=   100.00 Ry     beta= 0.70
     Davidson diagonalization with overlap

---- Real-time Memory Report at c_bands before calling an iterative solver
           346 MiB given to the printing process from OS
           259 MiB allocation reported by mallinfo(arena+hblkhd)
        318136 MiB available memory on the node where the printing process lives
------------------
     ethr =  1.00E-02,  avg # of iterations = 13.7

     Threshold (ethr) on eigenvalues was too large:
     Diagonalizing with lowered threshold

     Davidson diagonalization with overlap

---- Real-time Memory Report at c_bands before calling an iterative solver
           405 MiB given to the printing process from OS
           265 MiB allocation reported by mallinfo(arena+hblkhd)
        317807 MiB available memory on the node where the printing process lives
------------------
     ethr =  3.96E-04,  avg # of iterations =  9.0

     negative rho (up, down):  2.992E-04 0.000E+00

     total cpu time spent up to now is       32.2 secs

     total energy              =   -3864.12427511 Ry
     estimated scf accuracy    <       1.36874561 Ry

     iteration #  2     ecut=   100.00 Ry     beta= 0.70
     Davidson diagonalization with overlap

---- Real-time Memory Report at c_bands before calling an iterative solver
           405 MiB given to the printing process from OS
           265 MiB allocation reported by mallinfo(arena+hblkhd)
        317705 MiB available memory on the node where the printing process lives
------------------
     ethr =  3.91E-04,  avg # of iterations = 13.9

     negative rho (up, down):  3.059E-06 0.000E+00

     total cpu time spent up to now is       41.2 secs

     total energy              =   -3863.61295170 Ry
     estimated scf accuracy    <       8.91949404 Ry

     iteration #  3     ecut=   100.00 Ry     beta= 0.70
     Davidson diagonalization with overlap

---- Real-time Memory Report at c_bands before calling an iterative solver
           422 MiB given to the printing process from OS
           281 MiB allocation reported by mallinfo(arena+hblkhd)
        317219 MiB available memory on the node where the printing process lives
------------------
     ethr =  3.91E-04,  avg # of iterations = 14.6

     negative rho (up, down):  2.144E-06 0.000E+00

     total cpu time spent up to now is       50.2 secs

     total energy              =   -3864.73448019 Ry
     estimated scf accuracy    <       1.08176719 Ry

     iteration #  4     ecut=   100.00 Ry     beta= 0.70
     Davidson diagonalization with overlap

---- Real-time Memory Report at c_bands before calling an iterative solver
           424 MiB given to the printing process from OS
           281 MiB allocation reported by mallinfo(arena+hblkhd)
        317196 MiB available memory on the node where the printing process lives
------------------
     ethr =  3.09E-04,  avg # of iterations = 14.9

     negative rho (up, down):  1.120E-06 0.000E+00

     total cpu time spent up to now is       57.4 secs

     total energy              =   -3864.25278913 Ry
     estimated scf accuracy    <      20.15511453 Ry

     iteration #  5     ecut=   100.00 Ry     beta= 0.70
     Davidson diagonalization with overlap

---- Real-time Memory Report at c_bands before calling an iterative solver
           428 MiB given to the printing process from OS
           283 MiB allocation reported by mallinfo(arena+hblkhd)
        317174 MiB available memory on the node where the printing process lives
------------------
     ethr =  3.09E-04,  avg # of iterations = 12.1

     negative rho (up, down):  5.621E-07 0.000E+00

     total cpu time spent up to now is       63.9 secs

     total energy              =   -3864.88405501 Ry
     estimated scf accuracy    <       0.93756981 Ry

     iteration #  6     ecut=   100.00 Ry     beta= 0.70
     Davidson diagonalization with overlap

---- Real-time Memory Report at c_bands before calling an iterative solver
           430 MiB given to the printing process from OS
           283 MiB allocation reported by mallinfo(arena+hblkhd)
        317171 MiB available memory on the node where the printing process lives
------------------
     ethr =  2.68E-04,  avg # of iterations =  8.3

     negative rho (up, down):  2.751E-07 0.000E+00

     total cpu time spent up to now is       69.6 secs

     total energy              =   -3864.92688000 Ry
     estimated scf accuracy    <       0.02690419 Ry

     iteration #  7     ecut=   100.00 Ry     beta= 0.70
     Davidson diagonalization with overlap

---- Real-time Memory Report at c_bands before calling an iterative solver
           430 MiB given to the printing process from OS
           283 MiB allocation reported by mallinfo(arena+hblkhd)
        317164 MiB available memory on the node where the printing process lives
------------------
     ethr =  7.69E-06,  avg # of iterations = 16.9

     negative rho (up, down):  9.735E-08 0.000E+00

     total cpu time spent up to now is       77.5 secs

     total energy              =   -3864.92530070 Ry
     estimated scf accuracy    <       0.24681369 Ry

     iteration #  8     ecut=   100.00 Ry     beta= 0.70
     Davidson diagonalization with overlap

---- Real-time Memory Report at c_bands before calling an iterative solver
           433 MiB given to the printing process from OS
           291 MiB allocation reported by mallinfo(arena+hblkhd)
        317117 MiB available memory on the node where the printing process lives
------------------
     ethr =  7.69E-06,  avg # of iterations = 14.4

     negative rho (up, down):  1.539E-08 0.000E+00

     total cpu time spent up to now is       84.8 secs

     total energy              =   -3864.93092901 Ry
     estimated scf accuracy    <       0.11708875 Ry

     iteration #  9     ecut=   100.00 Ry     beta= 0.70
     Davidson diagonalization with overlap

---- Real-time Memory Report at c_bands before calling an iterative solver
           435 MiB given to the printing process from OS
           291 MiB allocation reported by mallinfo(arena+hblkhd)
        317092 MiB available memory on the node where the printing process lives
------------------
     ethr =  7.69E-06,  avg # of iterations =  9.9

     total cpu time spent up to now is       90.4 secs

     total energy              =   -3864.93153079 Ry
     estimated scf accuracy    <       0.00335323 Ry

     iteration # 10     ecut=   100.00 Ry     beta= 0.70
     Davidson diagonalization with overlap

---- Real-time Memory Report at c_bands before calling an iterative solver
           437 MiB given to the printing process from OS
           291 MiB allocation reported by mallinfo(arena+hblkhd)
        317033 MiB available memory on the node where the printing process lives
------------------
     ethr =  9.58E-07,  avg # of iterations = 13.0

     negative rho (up, down):  3.357E-08 0.000E+00

     total cpu time spent up to now is       97.5 secs

     total energy              =   -3864.93132803 Ry
     estimated scf accuracy    <       0.02918692 Ry

     iteration # 11     ecut=   100.00 Ry     beta= 0.70
     Davidson diagonalization with overlap

---- Real-time Memory Report at c_bands before calling an iterative solver
           439 MiB given to the printing process from OS
           292 MiB allocation reported by mallinfo(arena+hblkhd)
        316985 MiB available memory on the node where the printing process lives
------------------
     ethr =  9.58E-07,  avg # of iterations = 11.4

     negative rho (up, down):  2.059E-06 0.000E+00

     total cpu time spent up to now is      103.4 secs

     total energy              =   -3864.93159361 Ry
     estimated scf accuracy    <       0.00037240 Ry

     iteration # 12     ecut=   100.00 Ry     beta= 0.70
     Davidson diagonalization with overlap

---- Real-time Memory Report at c_bands before calling an iterative solver
           439 MiB given to the printing process from OS
           292 MiB allocation reported by mallinfo(arena+hblkhd)
        316996 MiB available memory on the node where the printing process lives
------------------
     ethr =  1.06E-07,  avg # of iterations = 10.1

     negative rho (up, down):  3.029E-06 0.000E+00

     total cpu time spent up to now is      109.6 secs

     total energy              =   -3864.93160202 Ry
     estimated scf accuracy    <       0.00017268 Ry

     iteration # 13     ecut=   100.00 Ry     beta= 0.70
     Davidson diagonalization with overlap

---- Real-time Memory Report at c_bands before calling an iterative solver
           439 MiB given to the printing process from OS
           292 MiB allocation reported by mallinfo(arena+hblkhd)
        317017 MiB available memory on the node where the printing process lives
------------------
     ethr =  4.93E-08,  avg # of iterations =  2.7

     negative rho (up, down):  6.398E-07 0.000E+00

     total cpu time spent up to now is      114.3 secs

     total energy              =   -3864.93160346 Ry
     estimated scf accuracy    <       0.00000227 Ry

     iteration # 14     ecut=   100.00 Ry     beta= 0.70
     Davidson diagonalization with overlap

---- Real-time Memory Report at c_bands before calling an iterative solver
           439 MiB given to the printing process from OS
           292 MiB allocation reported by mallinfo(arena+hblkhd)
        316991 MiB available memory on the node where the printing process lives
------------------
     ethr =  6.49E-10,  avg # of iterations = 14.6

     negative rho (up, down):  3.933E-07 0.000E+00

     total cpu time spent up to now is      122.6 secs

     total energy              =   -3864.93160372 Ry
     estimated scf accuracy    <       0.00000229 Ry

     iteration # 15     ecut=   100.00 Ry     beta= 0.70
     Davidson diagonalization with overlap

---- Real-time Memory Report at c_bands before calling an iterative solver
           439 MiB given to the printing process from OS
           298 MiB allocation reported by mallinfo(arena+hblkhd)
        316982 MiB available memory on the node where the printing process lives
------------------
     ethr =  6.49E-10,  avg # of iterations = 15.0

     total cpu time spent up to now is      129.5 secs

     total energy              =   -3864.93160381 Ry
     estimated scf accuracy    <       0.00000050 Ry

     iteration # 16     ecut=   100.00 Ry     beta= 0.70
     Davidson diagonalization with overlap

---- Real-time Memory Report at c_bands before calling an iterative solver
           439 MiB given to the printing process from OS
           298 MiB allocation reported by mallinfo(arena+hblkhd)
        317013 MiB available memory on the node where the printing process lives
------------------
     ethr =  1.44E-10,  avg # of iterations = 17.0

     total cpu time spent up to now is      136.7 secs

     total energy              =   -3864.93160383 Ry
     estimated scf accuracy    <       0.00000003 Ry

     iteration # 17     ecut=   100.00 Ry     beta= 0.70
     Davidson diagonalization with overlap

---- Real-time Memory Report at c_bands before calling an iterative solver
           439 MiB given to the printing process from OS
           298 MiB allocation reported by mallinfo(arena+hblkhd)
        316982 MiB available memory on the node where the printing process lives
------------------
     ethr =  9.97E-12,  avg # of iterations = 14.3

     total cpu time spent up to now is      144.1 secs

     total energy              =   -3864.93160383 Ry
     estimated scf accuracy    <          7.0E-09 Ry

     iteration # 18     ecut=   100.00 Ry     beta= 0.70
     Davidson diagonalization with overlap

---- Real-time Memory Report at c_bands before calling an iterative solver
           439 MiB given to the printing process from OS
           298 MiB allocation reported by mallinfo(arena+hblkhd)
        317022 MiB available memory on the node where the printing process lives
------------------
     ethr =  2.01E-12,  avg # of iterations = 14.7

     total cpu time spent up to now is      151.5 secs

     total energy              =   -3864.93160383 Ry
     estimated scf accuracy    <          3.0E-09 Ry

     iteration # 19     ecut=   100.00 Ry     beta= 0.70
     Davidson diagonalization with overlap

---- Real-time Memory Report at c_bands before calling an iterative solver
           439 MiB given to the printing process from OS
           298 MiB allocation reported by mallinfo(arena+hblkhd)
        316983 MiB available memory on the node where the printing process lives
------------------
     ethr =  8.55E-13,  avg # of iterations = 14.7

     total cpu time spent up to now is      158.2 secs

     total energy              =   -3864.93160383 Ry
     estimated scf accuracy    <          1.6E-10 Ry

     iteration # 20     ecut=   100.00 Ry     beta= 0.70
     Davidson diagonalization with overlap

---- Real-time Memory Report at c_bands before calling an iterative solver
           441 MiB given to the printing process from OS
           298 MiB allocation reported by mallinfo(arena+hblkhd)
        316993 MiB available memory on the node where the printing process lives
------------------
     ethr =  1.00E-13,  avg # of iterations = 13.6

     total cpu time spent up to now is      165.4 secs

     total energy              =   -3864.93160383 Ry
     estimated scf accuracy    <          8.0E-10 Ry

     iteration # 21     ecut=   100.00 Ry     beta= 0.70
     Davidson diagonalization with overlap

---- Real-time Memory Report at c_bands before calling an iterative solver
           441 MiB given to the printing process from OS
           298 MiB allocation reported by mallinfo(arena+hblkhd)
        316988 MiB available memory on the node where the printing process lives
------------------
     ethr =  1.00E-13,  avg # of iterations = 12.0

     total cpu time spent up to now is      171.9 secs

     total energy              =   -3864.93160383 Ry
     estimated scf accuracy    <          6.7E-11 Ry

     iteration # 22     ecut=   100.00 Ry     beta= 0.70
     Davidson diagonalization with overlap

---- Real-time Memory Report at c_bands before calling an iterative solver
           441 MiB given to the printing process from OS
           298 MiB allocation reported by mallinfo(arena+hblkhd)
        317022 MiB available memory on the node where the printing process lives
------------------
     ethr =  1.00E-13,  avg # of iterations =  9.6

     total cpu time spent up to now is      178.0 secs

     total energy              =   -3864.93160383 Ry
     estimated scf accuracy    <          5.1E-12 Ry

     iteration # 23     ecut=   100.00 Ry     beta= 0.70
     Davidson diagonalization with overlap

---- Real-time Memory Report at c_bands before calling an iterative solver
           441 MiB given to the printing process from OS
           298 MiB allocation reported by mallinfo(arena+hblkhd)
        317002 MiB available memory on the node where the printing process lives
------------------
     ethr =  1.00E-13,  avg # of iterations =  1.9

     total cpu time spent up to now is      182.4 secs

     total energy              =   -3864.93160383 Ry
     estimated scf accuracy    <          2.6E-12 Ry

     iteration # 24     ecut=   100.00 Ry     beta= 0.70
     Davidson diagonalization with overlap

---- Real-time Memory Report at c_bands before calling an iterative solver
           441 MiB given to the printing process from OS
           298 MiB allocation reported by mallinfo(arena+hblkhd)
        316986 MiB available memory on the node where the printing process lives
------------------
     ethr =  1.00E-13,  avg # of iterations =  1.6

     total cpu time spent up to now is      186.7 secs

     End of self-consistent calculation

          k = 0.0000 0.0000 0.0000 (197283 PWs)   bands (ev):

   -53.8955 -53.8955 -53.8504 -53.8504 -53.8504 -53.8504 -44.7937 -44.7936
   -44.7885 -44.7885 -44.7885 -44.7885 -44.7382 -44.7382 -44.7382 -44.7382
   -44.1054 -44.1054 -44.1054 -44.1054 -44.1046 -44.1045 -44.0953 -44.0952
   -44.0949 -44.0949 -44.0949 -44.0949 -44.0674 -44.0674 -44.0673 -44.0673
   -44.0068 -44.0068 -44.0067 -44.0067 -43.9994 -43.9994 -43.9975 -43.9975
   -43.9975 -43.9975 -43.9859 -43.9858 -43.9731 -43.9731 -43.9731 -43.9731
   -43.9714 -43.9713 -43.9554 -43.9554 -43.9547 -43.9547 -43.9547 -43.9547
   -43.6803 -43.6802 -43.6798 -43.6798 -43.6797 -43.6797 -43.6746 -43.6746
   -43.6745 -43.6745 -43.6738 -43.6736 -43.6115 -43.6115 -43.6114 -43.6114
   -43.6093 -43.6093 -43.5528 -43.5527 -43.5510 -43.5510 -43.5509 -43.5509
   -43.5479 -43.5477 -43.5468 -43.5468 -43.5467 -43.5467 -30.1320 -30.1320
   -30.0465 -30.0465 -30.0465 -30.0465 -30.0319 -30.0318 -29.9910 -29.9910
   -29.9910 -29.9910 -29.8448 -29.8448 -29.6993 -29.6993 -29.6993 -29.6993
   -12.6852 -12.5526 -12.1884 -12.1716 -11.5367 -11.5108 -11.4780 -11.4780
   -11.4778 -11.4778 -11.3710 -11.3625 -11.0636 -11.0636 -11.0174 -11.0174
    -4.1291  -4.1291  -4.1041  -4.1041  -3.8814  -3.7790  -3.6725  -3.3842
    -3.3842  -3.3082  -3.1757  -3.1651  -3.1651  -3.0320  -2.8210  -2.6667
    -2.2898  -2.2898  -2.2746  -2.2746  -1.6165  -1.6165  -1.5830  -1.5427
    -1.4615  -1.3447  -1.3447  -1.3084  -1.3084  -1.2379  -1.2379  -1.1650
    -0.9523  -0.9280  -0.9280  -0.9168  -0.8663  -0.7958  -0.7958  -0.3171
    -0.0768  -0.0768  -0.0686  -0.0686   0.3841   0.4072   0.6112   0.6112
     0.6240   0.6240   0.8859   0.8859   1.0109   1.0109   1.6049   1.8007
     2.5924   2.5924   2.6046   2.6046   2.9419   3.0341   3.2272   3.2272
     3.3275   3.3275   3.6071   3.6108   3.6491   3.6491   3.7030   3.7030
     3.8588   3.8588   3.9309   3.9309   4.2132   4.3499   4.9337   5.0695
     5.4671   5.4671   5.6033   5.6033   5.6087   5.6629   6.0495   6.2120
     6.2662   6.2662

     occupation numbers 
     1.0000   1.0000   1.0000   1.0000   1.0000   1.0000   1.0000   1.0000
     1.0000   1.0000   1.0000   1.0000   1.0000   1.0000   1.0000   1.0000
     1.0000   1.0000   1.0000   1.0000   1.0000   1.0000   1.0000   1.0000
     1.0000   1.0000   1.0000   1.0000   1.0000   1.0000   1.0000   1.0000
     1.0000   1.0000   1.0000   1.0000   1.0000   1.0000   1.0000   1.0000
     1.0000   1.0000   1.0000   1.0000   1.0000   1.0000   1.0000   1.0000
     1.0000   1.0000   1.0000   1.0000   1.0000   1.0000   1.0000   1.0000
     1.0000   1.0000   1.0000   1.0000   1.0000   1.0000   1.0000   1.0000
     1.0000   1.0000   1.0000   1.0000   1.0000   1.0000   1.0000   1.0000
     1.0000   1.0000   1.0000   1.0000   1.0000   1.0000   1.0000   1.0000
     1.0000   1.0000   1.0000   1.0000   1.0000   1.0000   1.0000   1.0000
     1.0000   1.0000   1.0000   1.0000   1.0000   1.0000   1.0000   1.0000
     1.0000   1.0000   1.0000   1.0000   1.0000   1.0000   1.0000   1.0000
     1.0000   1.0000   1.0000   1.0000   1.0000   1.0000   1.0000   1.0000
     1.0000   1.0000   1.0000   1.0000   1.0000   1.0000   1.0000   1.0000
     1.0000   1.0000   1.0000   1.0000   1.0000   1.0000   1.0000   1.0000
     1.0000   1.0000   1.0000   1.0000   1.0000   1.0000   1.0000   1.0000
     1.0000   1.0000   1.0000   1.0000   1.0000   1.0000   1.0000   1.0000
     1.0000   1.0000   1.0000   1.0000   1.0000   1.0000   1.0000   1.0000
     1.0000   1.0000   1.0000   1.0000   1.0000   1.0000   1.0000   1.0000
     1.0000   1.0000   1.0000   1.0000   1.0000   1.0000   1.0000   1.0000
     1.0000   1.0000   1.0000   1.0000   1.0000   1.0000   1.0014   0.0407
     0.0000   0.0000   0.0000   0.0000   0.0000   0.0000   0.0000   0.0000
     0.0000   0.0000   0.0000   0.0000   0.0000   0.0000   0.0000   0.0000
     0.0000   0.0000   0.0000   0.0000   0.0000   0.0000   0.0000   0.0000
     0.0000   0.0000   0.0000   0.0000   0.0000   0.0000   0.0000   0.0000
     0.0000   0.0000

          k =-0.0962 0.1667 0.0000 (197376 PWs)   bands (ev):

   -53.8955 -53.8955 -53.8504 -53.8504 -53.8504 -53.8504 -44.7937 -44.7936
   -44.7885 -44.7885 -44.7885 -44.7885 -44.7382 -44.7382 -44.7382 -44.7382
   -44.1054 -44.1054 -44.1054 -44.1053 -44.1046 -44.1046 -44.0953 -44.0952
   -44.0949 -44.0949 -44.0949 -44.0949 -44.0674 -44.0674 -44.0673 -44.0673
   -44.0068 -44.0068 -44.0067 -44.0067 -43.9993 -43.9993 -43.9976 -43.9976
   -43.9975 -43.9975 -43.9859 -43.9858 -43.9731 -43.9731 -43.9730 -43.9730
   -43.9715 -43.9714 -43.9554 -43.9553 -43.9548 -43.9547 -43.9547 -43.9547
   -43.6803 -43.6802 -43.6798 -43.6798 -43.6797 -43.6797 -43.6746 -43.6746
   -43.6745 -43.6745 -43.6738 -43.6737 -43.6115 -43.6114 -43.6114 -43.6113
   -43.6095 -43.6094 -43.5527 -43.5526 -43.5511 -43.5510 -43.5510 -43.5509
   -43.5478 -43.5477 -43.5469 -43.5468 -43.5468 -43.5467 -30.1311 -30.1311
   -30.0463 -30.0463 -30.0458 -30.0457 -30.0314 -30.0314 -29.9913 -29.9913
   -29.9910 -29.9910 -29.8454 -29.8454 -29.7008 -29.7008 -29.6996 -29.6996
   -12.6505 -12.5255 -12.1675 -12.1441 -11.5664 -11.5547 -11.5028 -11.4959
   -11.4816 -11.4812 -11.3785 -11.3617 -11.0879 -11.0639 -11.0428 -11.0150
    -4.0424  -4.0310  -4.0138  -4.0043  -3.7245  -3.6380  -3.5598  -3.4419
    -3.3382  -3.1940  -3.1307  -3.0998  -3.0229  -2.9505  -2.8023  -2.6075
    -2.3583  -2.3205  -2.3188  -2.2999  -1.8101  -1.6942  -1.6572  -1.5717
    -1.5579  -1.5572  -1.4354  -1.4146  -1.3457  -1.2619  -1.2283  -1.0952
    -1.0421  -1.0188  -0.9947  -0.9082  -0.8454  -0.8220  -0.7621  -0.4062
    -0.2848  -0.1292  -0.0833  -0.0778   0.2505   0.2996   0.3497   0.3750
     0.5264   0.5751   0.8435   0.8613   0.9603   1.0027   1.6554   1.8235
     2.5815   2.5968   2.5969   2.6228   2.9904   3.0408   3.1936   3.2054
     3.2957   3.2995   3.4794   3.5076   3.5755   3.5983   3.6072   3.6390
     3.8971   3.9608   4.0204   4.0943   4.2394   4.3168   5.1626   5.2781
     5.6414   5.7355   5.7410   5.8018   5.8558   5.8570   6.2201   6.2277
     6.3401   6.3891

     occupation numbers 
     1.0000   1.0000   1.0000   1.0000   1.0000   1.0000   1.0000   1.0000
     1.0000   1.0000   1.0000   1.0000   1.0000   1.0000   1.0000   1.0000
     1.0000   1.0000   1.0000   1.0000   1.0000   1.0000   1.0000   1.0000
     1.0000   1.0000   1.0000   1.0000   1.0000   1.0000   1.0000   1.0000
     1.0000   1.0000   1.0000   1.0000   1.0000   1.0000   1.0000   1.0000
     1.0000   1.0000   1.0000   1.0000   1.0000   1.0000   1.0000   1.0000
     1.0000   1.0000   1.0000   1.0000   1.0000   1.0000   1.0000   1.0000
     1.0000   1.0000   1.0000   1.0000   1.0000   1.0000   1.0000   1.0000
     1.0000   1.0000   1.0000   1.0000   1.0000   1.0000   1.0000   1.0000
     1.0000   1.0000   1.0000   1.0000   1.0000   1.0000   1.0000   1.0000
     1.0000   1.0000   1.0000   1.0000   1.0000   1.0000   1.0000   1.0000
     1.0000   1.0000   1.0000   1.0000   1.0000   1.0000   1.0000   1.0000
     1.0000   1.0000   1.0000   1.0000   1.0000   1.0000   1.0000   1.0000
     1.0000   1.0000   1.0000   1.0000   1.0000   1.0000   1.0000   1.0000
     1.0000   1.0000   1.0000   1.0000   1.0000   1.0000   1.0000   1.0000
     1.0000   1.0000   1.0000   1.0000   1.0000   1.0000   1.0000   1.0000
     1.0000   1.0000   1.0000   1.0000   1.0000   1.0000   1.0000   1.0000
     1.0000   1.0000   1.0000   1.0000   1.0000   1.0000   1.0000   1.0000
     1.0000   1.0000   1.0000   1.0000   1.0000   1.0000   1.0000   1.0000
     1.0000   1.0000   1.0000   1.0000   1.0000   1.0000   1.0000   1.0000
     1.0000   1.0000   1.0000   1.0000   1.0000   1.0000   1.0000   1.0000
     1.0000   1.0000   1.0000   1.0000   1.0000   1.0000   1.0414   0.0072
     0.0000   0.0000   0.0000   0.0000   0.0000   0.0000   0.0000   0.0000
     0.0000   0.0000   0.0000   0.0000   0.0000   0.0000   0.0000   0.0000
     0.0000   0.0000   0.0000   0.0000   0.0000   0.0000   0.0000   0.0000
     0.0000   0.0000   0.0000   0.0000   0.0000   0.0000   0.0000   0.0000
     0.0000   0.0000

          k =-0.1925 0.3333 0.0000 (197434 PWs)   bands (ev):

   -53.8955 -53.8954 -53.8505 -53.8504 -53.8504 -53.8504 -44.7937 -44.7936
   -44.7885 -44.7885 -44.7885 -44.7885 -44.7382 -44.7382 -44.7382 -44.7382
   -44.1054 -44.1054 -44.1052 -44.1052 -44.1047 -44.1047 -44.0952 -44.0952
   -44.0950 -44.0950 -44.0949 -44.0949 -44.0674 -44.0674 -44.0673 -44.0673
   -44.0068 -44.0068 -44.0067 -44.0067 -43.9990 -43.9990 -43.9979 -43.9979
   -43.9975 -43.9975 -43.9859 -43.9858 -43.9731 -43.9731 -43.9728 -43.9727
   -43.9717 -43.9717 -43.9553 -43.9552 -43.9549 -43.9548 -43.9547 -43.9547
   -43.6802 -43.6801 -43.6799 -43.6798 -43.6798 -43.6797 -43.6746 -43.6745
   -43.6745 -43.6744 -43.6739 -43.6738 -43.6115 -43.6114 -43.6111 -43.6110
   -43.6097 -43.6096 -43.5525 -43.5524 -43.5513 -43.5512 -43.5510 -43.5509
   -43.5477 -43.5476 -43.5470 -43.5469 -43.5468 -43.5467 -30.1292 -30.1292
   -30.0459 -30.0459 -30.0441 -30.0441 -30.0304 -30.0304 -29.9920 -29.9920
   -29.9910 -29.9910 -29.8465 -29.8465 -29.7037 -29.7036 -29.7001 -29.7001
   -12.5692 -12.4775 -12.0888 -12.0592 -11.7191 -11.7138 -11.5050 -11.5018
   -11.4889 -11.4881 -11.3890 -11.3448 -11.1307 -11.1028 -11.0644 -11.0104
    -3.8629  -3.7898  -3.7579  -3.7342  -3.5012  -3.4475  -3.2657  -3.2233
    -3.1988  -3.0404  -3.0399  -2.8472  -2.7889  -2.7398  -2.7029  -2.5440
    -2.5155  -2.4214  -2.4061  -2.4053  -2.0681  -1.9846  -1.8981  -1.8650
    -1.8120  -1.7344  -1.6211  -1.5513  -1.3920  -1.3642  -1.2583  -1.2406
    -1.2222  -1.2065  -1.0851  -1.0403  -0.8055  -0.7146  -0.7031  -0.6558
    -0.5347  -0.3365  -0.2939  -0.1376  -0.1192  -0.1037   0.2274   0.2674
     0.3564   0.4344   0.7898   0.8581   0.8919   0.9940   1.6864   1.7618
     2.5921   2.6027   2.6286   2.6406   2.9535   3.0122   3.1267   3.1318
     3.1692   3.2448   3.3511   3.4196   3.5674   3.5791   3.6238   3.6436
     3.8514   3.9341   4.0335   4.1045   4.4662   4.4762   5.6753   5.6985
     6.0733   6.0827   6.1472   6.2254   6.2346   6.4415   6.4812   6.5090
     6.6207   6.7810

     occupation numbers 
     1.0000   1.0000   1.0000   1.0000   1.0000   1.0000   1.0000   1.0000
     1.0000   1.0000   1.0000   1.0000   1.0000   1.0000   1.0000   1.0000
     1.0000   1.0000   1.0000   1.0000   1.0000   1.0000   1.0000   1.0000
     1.0000   1.0000   1.0000   1.0000   1.0000   1.0000   1.0000   1.0000
     1.0000   1.0000   1.0000   1.0000   1.0000   1.0000   1.0000   1.0000
     1.0000   1.0000   1.0000   1.0000   1.0000   1.0000   1.0000   1.0000
     1.0000   1.0000   1.0000   1.0000   1.0000   1.0000   1.0000   1.0000
     1.0000   1.0000   1.0000   1.0000   1.0000   1.0000   1.0000   1.0000
     1.0000   1.0000   1.0000   1.0000   1.0000   1.0000   1.0000   1.0000
     1.0000   1.0000   1.0000   1.0000   1.0000   1.0000   1.0000   1.0000
     1.0000   1.0000   1.0000   1.0000   1.0000   1.0000   1.0000   1.0000
     1.0000   1.0000   1.0000   1.0000   1.0000   1.0000   1.0000   1.0000
     1.0000   1.0000   1.0000   1.0000   1.0000   1.0000   1.0000   1.0000
     1.0000   1.0000   1.0000   1.0000   1.0000   1.0000   1.0000   1.0000
     1.0000   1.0000   1.0000   1.0000   1.0000   1.0000   1.0000   1.0000
     1.0000   1.0000   1.0000   1.0000   1.0000   1.0000   1.0000   1.0000
     1.0000   1.0000   1.0000   1.0000   1.0000   1.0000   1.0000   1.0000
     1.0000   1.0000   1.0000   1.0000   1.0000   1.0000   1.0000   1.0000
     1.0000   1.0000   1.0000   1.0000   1.0000   1.0000   1.0000   1.0000
     1.0000   1.0000   1.0000   1.0000   1.0000   1.0000   1.0000   1.0000
     1.0000   1.0000   1.0000   1.0000   1.0000   1.0000   1.0000   1.0000
     1.0000   1.0000   1.0000   1.0000   1.0000   1.0000   1.0830   0.3172
     0.0000   0.0000   0.0000   0.0000   0.0000   0.0000   0.0000   0.0000
     0.0000   0.0000   0.0000   0.0000   0.0000   0.0000   0.0000   0.0000
     0.0000   0.0000   0.0000   0.0000   0.0000   0.0000   0.0000   0.0000
     0.0000   0.0000   0.0000   0.0000   0.0000   0.0000   0.0000   0.0000
     0.0000   0.0000

          k = 0.2887-0.5000 0.0000 (197578 PWs)   bands (ev):

   -53.8954 -53.8954 -53.8505 -53.8504 -53.8504 -53.8504 -44.7937 -44.7936
   -44.7885 -44.7885 -44.7885 -44.7885 -44.7382 -44.7382 -44.7382 -44.7382
   -44.1054 -44.1054 -44.1051 -44.1051 -44.1048 -44.1048 -44.0951 -44.0951
   -44.0950 -44.0950 -44.0949 -44.0948 -44.0674 -44.0674 -44.0673 -44.0673
   -44.0068 -44.0068 -44.0067 -44.0067 -43.9988 -43.9988 -43.9981 -43.9981
   -43.9975 -43.9975 -43.9859 -43.9858 -43.9731 -43.9731 -43.9726 -43.9725
   -43.9720 -43.9719 -43.9552 -43.9552 -43.9550 -43.9549 -43.9547 -43.9547
   -43.6801 -43.6801 -43.6799 -43.6798 -43.6798 -43.6797 -43.6746 -43.6745
   -43.6744 -43.6743 -43.6740 -43.6738 -43.6115 -43.6114 -43.6109 -43.6108
   -43.6099 -43.6098 -43.5523 -43.5522 -43.5515 -43.5514 -43.5510 -43.5509
   -43.5476 -43.5475 -43.5471 -43.5470 -43.5468 -43.5467 -30.1283 -30.1283
   -30.0457 -30.0457 -30.0433 -30.0433 -30.0299 -30.0299 -29.9923 -29.9923
   -29.9910 -29.9910 -29.8471 -29.8471 -29.7051 -29.7051 -29.7004 -29.7004
   -12.5140 -12.4666 -11.9589 -11.9334 -11.8875 -11.8847 -11.5059 -11.4988
   -11.4925 -11.4914 -11.3948 -11.3277 -11.1478 -11.1424 -11.0646 -11.0083
    -3.7062  -3.6304  -3.5949  -3.5886  -3.3964  -3.3521  -3.1592  -3.1327
    -3.0989  -2.9489  -2.8204  -2.7378  -2.6670  -2.6175  -2.5819  -2.5660
    -2.5426  -2.5411  -2.4178  -2.3506  -2.1639  -2.1402  -2.0617  -2.0083
    -1.9835  -1.9181  -1.6985  -1.6002  -1.5812  -1.5565  -1.4204  -1.3238
    -1.2948  -1.2532  -1.2409  -1.0918  -0.8056  -0.7599  -0.7280  -0.6055
    -0.5744  -0.5348  -0.3703  -0.1845  -0.1829  -0.1707   0.1837   0.2302
     0.2684   0.3600   0.7653   0.8039   0.9273   0.9663   1.6913   1.6932
     2.6099   2.6266   2.6356   2.6463   2.9219   2.9656   3.0630   3.0847
     3.1286   3.2121   3.3337   3.4080   3.5667   3.5830   3.6560   3.7014
     3.8350   3.8544   4.0504   4.0820   4.5519   4.5916   6.0043   6.0839
     6.1253   6.1333   6.5271   6.5295   6.5433   6.5591   6.8644   6.8963
     6.9210   6.9512

     occupation numbers 
     1.0000   1.0000   1.0000   1.0000   1.0000   1.0000   1.0000   1.0000
     1.0000   1.0000   1.0000   1.0000   1.0000   1.0000   1.0000   1.0000
     1.0000   1.0000   1.0000   1.0000   1.0000   1.0000   1.0000   1.0000
     1.0000   1.0000   1.0000   1.0000   1.0000   1.0000   1.0000   1.0000
     1.0000   1.0000   1.0000   1.0000   1.0000   1.0000   1.0000   1.0000
     1.0000   1.0000   1.0000   1.0000   1.0000   1.0000   1.0000   1.0000
     1.0000   1.0000   1.0000   1.0000   1.0000   1.0000   1.0000   1.0000
     1.0000   1.0000   1.0000   1.0000   1.0000   1.0000   1.0000   1.0000
     1.0000   1.0000   1.0000   1.0000   1.0000   1.0000   1.0000   1.0000
     1.0000   1.0000   1.0000   1.0000   1.0000   1.0000   1.0000   1.0000
     1.0000   1.0000   1.0000   1.0000   1.0000   1.0000   1.0000   1.0000
     1.0000   1.0000   1.0000   1.0000   1.0000   1.0000   1.0000   1.0000
     1.0000   1.0000   1.0000   1.0000   1.0000   1.0000   1.0000   1.0000
     1.0000   1.0000   1.0000   1.0000   1.0000   1.0000   1.0000   1.0000
     1.0000   1.0000   1.0000   1.0000   1.0000   1.0000   1.0000   1.0000
     1.0000   1.0000   1.0000   1.0000   1.0000   1.0000   1.0000   1.0000
     1.0000   1.0000   1.0000   1.0000   1.0000   1.0000   1.0000   1.0000
     1.0000   1.0000   1.0000   1.0000   1.0000   1.0000   1.0000   1.0000
     1.0000   1.0000   1.0000   1.0000   1.0000   1.0000   1.0000   1.0000
     1.0000   1.0000   1.0000   1.0000   1.0000   1.0000   1.0000   1.0000
     1.0000   1.0000   1.0000   1.0000   1.0000   1.0000   1.0000   1.0000
     1.0000   1.0000   1.0000   1.0000   1.0000   1.0000   1.0785   1.0752
     0.0000   0.0000   0.0000   0.0000   0.0000   0.0000   0.0000   0.0000
     0.0000   0.0000   0.0000   0.0000   0.0000   0.0000   0.0000   0.0000
     0.0000   0.0000   0.0000   0.0000   0.0000   0.0000   0.0000   0.0000
     0.0000   0.0000   0.0000   0.0000   0.0000   0.0000   0.0000   0.0000
     0.0000   0.0000

          k =-0.0000 0.3333 0.0000 (197513 PWs)   bands (ev):

   -53.8955 -53.8954 -53.8504 -53.8504 -53.8504 -53.8504 -44.7937 -44.7936
   -44.7885 -44.7885 -44.7885 -44.7885 -44.7382 -44.7382 -44.7382 -44.7382
   -44.1054 -44.1054 -44.1053 -44.1052 -44.1047 -44.1047 -44.0952 -44.0952
   -44.0950 -44.0949 -44.0949 -44.0949 -44.0674 -44.0674 -44.0673 -44.0673
   -44.0068 -44.0068 -44.0067 -44.0067 -43.9991 -43.9991 -43.9978 -43.9978
   -43.9975 -43.9975 -43.9859 -43.9858 -43.9731 -43.9731 -43.9728 -43.9728
   -43.9717 -43.9716 -43.9553 -43.9553 -43.9549 -43.9548 -43.9547 -43.9547
   -43.6802 -43.6801 -43.6798 -43.6798 -43.6798 -43.6797 -43.6746 -43.6745
   -43.6745 -43.6744 -43.6739 -43.6737 -43.6115 -43.6114 -43.6112 -43.6111
   -43.6097 -43.6096 -43.5526 -43.5525 -43.5513 -43.5512 -43.5510 -43.5509
   -43.5477 -43.5476 -43.5470 -43.5469 -43.5468 -43.5467 -30.1297 -30.1297
   -30.0459 -30.0459 -30.0447 -30.0447 -30.0307 -30.0306 -29.9917 -29.9917
   -29.9911 -29.9911 -29.8462 -29.8462 -29.7028 -29.7028 -29.7001 -29.7001
   -12.5921 -12.4880 -12.1172 -12.0878 -11.6323 -11.6284 -11.5794 -11.5771
   -11.4578 -11.4515 -11.3788 -11.3476 -11.1266 -11.0968 -11.0477 -11.0113
    -3.9169  -3.8708  -3.8441  -3.7972  -3.4892  -3.4757  -3.3629  -3.3439
    -3.2369  -3.0921  -3.0781  -2.8754  -2.8586  -2.8062  -2.7585  -2.5330
    -2.4346  -2.4329  -2.3918  -2.3560  -2.0459  -1.9420  -1.9024  -1.7444
    -1.6509  -1.6426  -1.5948  -1.5652  -1.4782  -1.3297  -1.2349  -1.1767
    -1.1021  -1.0437  -1.0101  -0.9270  -0.8918  -0.8134  -0.6643  -0.5788
    -0.5372  -0.2945  -0.2681  -0.1343   0.0056   0.0202   0.2053   0.2110
     0.4331   0.4445   0.7975   0.8612   0.8831   1.0130   1.7059   1.8088
     2.5249   2.5500   2.6536   2.6960   3.0141   3.0459   3.1172   3.1640
     3.1869   3.2636   3.3562   3.4539   3.4851   3.4919   3.6837   3.6947
     3.8596   3.8807   4.2033   4.2453   4.2726   4.2856   5.5574   5.6093
     5.9392   6.0328   6.0736   6.0777   6.1601   6.2122   6.4231   6.4993
     6.5123   6.5746

     occupation numbers 
     1.0000   1.0000   1.0000   1.0000   1.0000   1.0000   1.0000   1.0000
     1.0000   1.0000   1.0000   1.0000   1.0000   1.0000   1.0000   1.0000
     1.0000   1.0000   1.0000   1.0000   1.0000   1.0000   1.0000   1.0000
     1.0000   1.0000   1.0000   1.0000   1.0000   1.0000   1.0000   1.0000
     1.0000   1.0000   1.0000   1.0000   1.0000   1.0000   1.0000   1.0000
     1.0000   1.0000   1.0000   1.0000   1.0000   1.0000   1.0000   1.0000
     1.0000   1.0000   1.0000   1.0000   1.0000   1.0000   1.0000   1.0000
     1.0000   1.0000   1.0000   1.0000   1.0000   1.0000   1.0000   1.0000
     1.0000   1.0000   1.0000   1.0000   1.0000   1.0000   1.0000   1.0000
     1.0000   1.0000   1.0000   1.0000   1.0000   1.0000   1.0000   1.0000
     1.0000   1.0000   1.0000   1.0000   1.0000   1.0000   1.0000   1.0000
     1.0000   1.0000   1.0000   1.0000   1.0000   1.0000   1.0000   1.0000
     1.0000   1.0000   1.0000   1.0000   1.0000   1.0000   1.0000   1.0000
     1.0000   1.0000   1.0000   1.0000   1.0000   1.0000   1.0000   1.0000
     1.0000   1.0000   1.0000   1.0000   1.0000   1.0000   1.0000   1.0000
     1.0000   1.0000   1.0000   1.0000   1.0000   1.0000   1.0000   1.0000
     1.0000   1.0000   1.0000   1.0000   1.0000   1.0000   1.0000   1.0000
     1.0000   1.0000   1.0000   1.0000   1.0000   1.0000   1.0000   1.0000
     1.0000   1.0000   1.0000   1.0000   1.0000   1.0000   1.0000   1.0000
     1.0000   1.0000   1.0000   1.0000   1.0000   1.0000   1.0000   1.0000
     1.0000   1.0000   1.0000   1.0000   1.0000   1.0000   1.0000   1.0000
     1.0000   1.0000   1.0000   1.0000   1.0000   1.0000   1.0235   0.0230
     0.0000   0.0000   0.0000   0.0000   0.0000   0.0000   0.0000   0.0000
     0.0000   0.0000   0.0000   0.0000   0.0000   0.0000   0.0000   0.0000
     0.0000   0.0000   0.0000   0.0000   0.0000   0.0000   0.0000   0.0000
     0.0000   0.0000   0.0000   0.0000   0.0000   0.0000   0.0000   0.0000
     0.0000   0.0000

          k =-0.0962 0.5000 0.0000 (197529 PWs)   bands (ev):

   -53.8954 -53.8954 -53.8505 -53.8504 -53.8504 -53.8504 -44.7937 -44.7936
   -44.7885 -44.7885 -44.7885 -44.7885 -44.7382 -44.7382 -44.7382 -44.7382
   -44.1054 -44.1054 -44.1051 -44.1051 -44.1048 -44.1048 -44.0951 -44.0951
   -44.0950 -44.0950 -44.0949 -44.0948 -44.0674 -44.0674 -44.0673 -44.0673
   -44.0068 -44.0068 -44.0067 -44.0067 -43.9988 -43.9988 -43.9981 -43.9981
   -43.9975 -43.9975 -43.9859 -43.9858 -43.9731 -43.9731 -43.9726 -43.9725
   -43.9720 -43.9719 -43.9552 -43.9552 -43.9550 -43.9549 -43.9547 -43.9547
   -43.6801 -43.6801 -43.6799 -43.6798 -43.6798 -43.6797 -43.6746 -43.6745
   -43.6744 -43.6743 -43.6740 -43.6738 -43.6115 -43.6114 -43.6109 -43.6108
   -43.6099 -43.6098 -43.5523 -43.5522 -43.5515 -43.5514 -43.5510 -43.5509
   -43.5476 -43.5475 -43.5471 -43.5470 -43.5468 -43.5467 -30.1283 -30.1283
   -30.0453 -30.0453 -30.0437 -30.0437 -30.0299 -30.0299 -29.9921 -29.9921
   -29.9912 -29.9912 -29.8471 -29.8471 -29.7048 -29.7047 -29.7008 -29.7007
   -12.5181 -12.4648 -11.9958 -11.9719 -11.7962 -11.7903 -11.6297 -11.6280
   -11.4409 -11.4157 -11.3790 -11.3262 -11.1659 -11.1545 -11.0372 -11.0045
    -3.7402  -3.6338  -3.6045  -3.5760  -3.3645  -3.2995  -3.1790  -3.1527
    -3.0665  -2.9535  -2.8216  -2.7478  -2.7075  -2.6194  -2.5908  -2.5842
    -2.5517  -2.5327  -2.4049  -2.3153  -2.2260  -2.1928  -2.0717  -2.0034
    -1.9583  -1.8562  -1.8117  -1.6884  -1.6237  -1.5510  -1.3451  -1.2326
    -1.2083  -1.1714  -1.0960  -0.9786  -0.8119  -0.7929  -0.7410  -0.6964
    -0.6277  -0.4971  -0.3749  -0.2387  -0.1837  -0.1569   0.0342   0.1014
     0.3492   0.3909   0.7622   0.7675   0.9013   0.9653   1.7515   1.7759
     2.4630   2.5112   2.7312   2.7587   2.9811   2.9940   3.0688   3.0956
     3.1518   3.1956   3.2934   3.3855   3.4129   3.4534   3.7208   3.8018
     3.8896   3.9043   4.1716   4.1802   4.3877   4.4103   6.0002   6.0208
     6.1774   6.2772   6.3422   6.5212   6.5659   6.6214   6.6705   6.7311
     6.8603   6.9139

     occupation numbers 
     1.0000   1.0000   1.0000   1.0000   1.0000   1.0000   1.0000   1.0000
     1.0000   1.0000   1.0000   1.0000   1.0000   1.0000   1.0000   1.0000
     1.0000   1.0000   1.0000   1.0000   1.0000   1.0000   1.0000   1.0000
     1.0000   1.0000   1.0000   1.0000   1.0000   1.0000   1.0000   1.0000
     1.0000   1.0000   1.0000   1.0000   1.0000   1.0000   1.0000   1.0000
     1.0000   1.0000   1.0000   1.0000   1.0000   1.0000   1.0000   1.0000
     1.0000   1.0000   1.0000   1.0000   1.0000   1.0000   1.0000   1.0000
     1.0000   1.0000   1.0000   1.0000   1.0000   1.0000   1.0000   1.0000
     1.0000   1.0000   1.0000   1.0000   1.0000   1.0000   1.0000   1.0000
     1.0000   1.0000   1.0000   1.0000   1.0000   1.0000   1.0000   1.0000
     1.0000   1.0000   1.0000   1.0000   1.0000   1.0000   1.0000   1.0000
     1.0000   1.0000   1.0000   1.0000   1.0000   1.0000   1.0000   1.0000
     1.0000   1.0000   1.0000   1.0000   1.0000   1.0000   1.0000   1.0000
     1.0000   1.0000   1.0000   1.0000   1.0000   1.0000   1.0000   1.0000
     1.0000   1.0000   1.0000   1.0000   1.0000   1.0000   1.0000   1.0000
     1.0000   1.0000   1.0000   1.0000   1.0000   1.0000   1.0000   1.0000
     1.0000   1.0000   1.0000   1.0000   1.0000   1.0000   1.0000   1.0000
     1.0000   1.0000   1.0000   1.0000   1.0000   1.0000   1.0000   1.0000
     1.0000   1.0000   1.0000   1.0000   1.0000   1.0000   1.0000   1.0000
     1.0000   1.0000   1.0000   1.0000   1.0000   1.0000   1.0000   1.0000
     1.0000   1.0000   1.0000   1.0000   1.0000   1.0000   1.0000   1.0000
     1.0000   1.0000   1.0000   1.0000   1.0000   1.0000   0.4545   0.1709
     0.0000   0.0000   0.0000   0.0000   0.0000   0.0000   0.0000   0.0000
     0.0000   0.0000   0.0000   0.0000   0.0000   0.0000   0.0000   0.0000
     0.0000   0.0000   0.0000   0.0000   0.0000   0.0000   0.0000   0.0000
     0.0000   0.0000   0.0000   0.0000   0.0000   0.0000   0.0000   0.0000
     0.0000   0.0000

          k =-0.0000 0.6667 0.0000 (197613 PWs)   bands (ev):

   -53.8954 -53.8954 -53.8505 -53.8505 -53.8504 -53.8504 -44.7937 -44.7936
   -44.7885 -44.7885 -44.7885 -44.7885 -44.7382 -44.7382 -44.7382 -44.7382
   -44.1054 -44.1054 -44.1051 -44.1050 -44.1049 -44.1049 -44.0951 -44.0951
   -44.0951 -44.0950 -44.0949 -44.0948 -44.0674 -44.0674 -44.0673 -44.0673
   -44.0068 -44.0068 -44.0067 -44.0067 -43.9986 -43.9986 -43.9983 -43.9983
   -43.9975 -43.9975 -43.9859 -43.9858 -43.9732 -43.9731 -43.9723 -43.9723
   -43.9722 -43.9721 -43.9551 -43.9551 -43.9551 -43.9550 -43.9547 -43.9547
   -43.6801 -43.6800 -43.6799 -43.6799 -43.6798 -43.6797 -43.6746 -43.6745
   -43.6744 -43.6743 -43.6740 -43.6739 -43.6115 -43.6114 -43.6107 -43.6106
   -43.6101 -43.6100 -43.5522 -43.5521 -43.5516 -43.5515 -43.5510 -43.5509
   -43.5476 -43.5474 -43.5472 -43.5471 -43.5468 -43.5467 -30.1278 -30.1278
   -30.0446 -30.0446 -30.0440 -30.0440 -30.0297 -30.0297 -29.9918 -29.9918
   -29.9917 -29.9917 -29.8474 -29.8474 -29.7051 -29.7051 -29.7013 -29.7013
   -12.4764 -12.4764 -11.8745 -11.8744 -11.8203 -11.8202 -11.7650 -11.7603
   -11.4219 -11.3741 -11.3740 -11.3207 -11.1881 -11.1881 -11.0080 -11.0079
    -3.6429  -3.6428  -3.4397  -3.3067  -3.3066  -3.3052  -3.1820  -3.1819
    -2.9555  -2.8408  -2.8037  -2.8036  -2.7942  -2.5890  -2.5889  -2.5460
    -2.3481  -2.3480  -2.3221  -2.3220  -2.2243  -2.2242  -2.1986  -2.1184
    -2.0382  -1.9667  -1.9665  -1.9066  -1.7916  -1.7916  -1.2779  -1.1921
    -1.1921  -1.1518  -1.0992  -0.9119  -0.8808  -0.8807  -0.7685  -0.7685
    -0.5191  -0.3997  -0.3488  -0.3487  -0.2195  -0.2194  -0.1499  -0.1498
     0.3889   0.3889   0.7232   0.7782   0.8844   0.8844   1.8279   1.8279
     2.3748   2.4443   2.8038   2.8038   2.9706   2.9706   3.1325   3.1325
     3.1661   3.1790   3.1791   3.2942   3.3416   3.3588   3.8470   3.8471
     3.9668   4.0681   4.1441   4.1442   4.3238   4.3239   6.0714   6.2487
     6.2488   6.4537   6.4537   6.4934   6.5151   6.7668   6.8070   6.8070
     7.1256   7.1257

     occupation numbers 
     1.0000   1.0000   1.0000   1.0000   1.0000   1.0000   1.0000   1.0000
     1.0000   1.0000   1.0000   1.0000   1.0000   1.0000   1.0000   1.0000
     1.0000   1.0000   1.0000   1.0000   1.0000   1.0000   1.0000   1.0000
     1.0000   1.0000   1.0000   1.0000   1.0000   1.0000   1.0000   1.0000
     1.0000   1.0000   1.0000   1.0000   1.0000   1.0000   1.0000   1.0000
     1.0000   1.0000   1.0000   1.0000   1.0000   1.0000   1.0000   1.0000
     1.0000   1.0000   1.0000   1.0000   1.0000   1.0000   1.0000   1.0000
     1.0000   1.0000   1.0000   1.0000   1.0000   1.0000   1.0000   1.0000
     1.0000   1.0000   1.0000   1.0000   1.0000   1.0000   1.0000   1.0000
     1.0000   1.0000   1.0000   1.0000   1.0000   1.0000   1.0000   1.0000
     1.0000   1.0000   1.0000   1.0000   1.0000   1.0000   1.0000   1.0000
     1.0000   1.0000   1.0000   1.0000   1.0000   1.0000   1.0000   1.0000
     1.0000   1.0000   1.0000   1.0000   1.0000   1.0000   1.0000   1.0000
     1.0000   1.0000   1.0000   1.0000   1.0000   1.0000   1.0000   1.0000
     1.0000   1.0000   1.0000   1.0000   1.0000   1.0000   1.0000   1.0000
     1.0000   1.0000   1.0000   1.0000   1.0000   1.0000   1.0000   1.0000
     1.0000   1.0000   1.0000   1.0000   1.0000   1.0000   1.0000   1.0000
     1.0000   1.0000   1.0000   1.0000   1.0000   1.0000   1.0000   1.0000
     1.0000   1.0000   1.0000   1.0000   1.0000   1.0000   1.0000   1.0000
     1.0000   1.0000   1.0000   1.0000   1.0000   1.0000   1.0000   1.0000
     1.0000   1.0000   1.0000   1.0000   1.0000   1.0000   1.0000   1.0000
     1.0000   1.0000   1.0000   1.0000   1.0000   1.0000   0.0049   0.0049
     0.0000   0.0000   0.0000   0.0000   0.0000   0.0000   0.0000   0.0000
     0.0000   0.0000   0.0000   0.0000   0.0000   0.0000   0.0000   0.0000
     0.0000   0.0000   0.0000   0.0000   0.0000   0.0000   0.0000   0.0000
     0.0000   0.0000   0.0000   0.0000   0.0000   0.0000   0.0000   0.0000
     0.0000   0.0000

     the Fermi energy is     1.7553 ev

!    total energy              =   -3864.93160383 Ry
     estimated scf accuracy    <          7.7E-13 Ry
     smearing contrib. (-TS)   =      -0.00034154 Ry
     internal energy E=F+TS    =   -3864.93126229 Ry

     convergence has been achieved in  24 iterations

     Forces acting on atoms (cartesian axes, Ry/au):

     atom    1 type  1   force =     0.00000026    0.00000000    0.00000212
     atom    2 type  1   force =    -0.00000013    0.00000022    0.00000212
     atom    3 type  1   force =    -0.00000013   -0.00000022    0.00000212
     atom    4 type  1   force =     0.00000011    0.00000000   -0.00000069
     atom    5 type  1   force =    -0.00000006    0.00000010   -0.00000069
     atom    6 type  1   force =    -0.00000006   -0.00000010   -0.00000069
     atom    7 type  2   force =     0.00000000   -0.00000000    0.00000019
     atom    8 type  2   force =    -0.00000001    0.00000000    0.00000094
     atom    9 type  2   force =     0.00000000   -0.00000001    0.00000094
     atom   10 type  2   force =     0.00000000    0.00000001    0.00000094
     atom   11 type  2   force =     0.00000000    0.00000000    0.00000116
     atom   12 type  2   force =     0.00000034    0.00000000    0.00000082
     atom   13 type  2   force =    -0.00000017    0.00000029    0.00000082
     atom   14 type  2   force =    -0.00000017   -0.00000029    0.00000082
     atom   15 type  2   force =     0.00000020   -0.00000000   -0.00000153
     atom   16 type  2   force =    -0.00000010    0.00000018   -0.00000153
     atom   17 type  2   force =    -0.00000010   -0.00000018   -0.00000153
     atom   18 type  2   force =    -0.00000000    0.00000000   -0.00000137
     atom   19 type  2   force =     0.00000016    0.00000000   -0.00000113
     atom   20 type  2   force =    -0.00000008    0.00000014   -0.00000113
     atom   21 type  2   force =    -0.00000008   -0.00000014   -0.00000113
     atom   22 type  2   force =     0.00000000    0.00000000   -0.00000156
     The non-local contrib.  to forces
     atom    1 type  1   force =    -0.15607899    0.00000000   -0.03383437
     atom    2 type  1   force =     0.07803950   -0.13516837   -0.03383437
     atom    3 type  1   force =     0.07803950    0.13516837   -0.03383437
     atom    4 type  1   force =     0.15608158    0.00000000    0.03383779
     atom    5 type  1   force =    -0.07804079    0.13517061    0.03383779
     atom    6 type  1   force =    -0.07804079   -0.13517061    0.03383779
     atom    7 type  2   force =     0.00000000    0.00000000    0.66753558
     atom    8 type  2   force =    -0.24845364    0.00000000    0.33582550
     atom    9 type  2   force =     0.12422682   -0.21516716    0.33582550
     atom   10 type  2   force =     0.12422682    0.21516716    0.33582550
     atom   11 type  2   force =    -0.00000000   -0.00000000   -0.37908322
     atom   12 type  2   force =     0.29363142   -0.00000000   -0.43801088
     atom   13 type  2   force =    -0.14681571    0.25429227   -0.43801088
     atom   14 type  2   force =    -0.14681571   -0.25429227   -0.43801088
     atom   15 type  2   force =    -0.29362227    0.00000000    0.43800447
     atom   16 type  2   force =     0.14681114   -0.25428435    0.43800447
     atom   17 type  2   force =     0.14681114    0.25428435    0.43800447
     atom   18 type  2   force =     0.00000000    0.00000000    0.37907251
     atom   19 type  2   force =     0.24842970    0.00000000   -0.33581522
     atom   20 type  2   force =    -0.12421485    0.21514643   -0.33581522
     atom   21 type  2   force =    -0.12421485   -0.21514643   -0.33581522
     atom   22 type  2   force =    -0.00000000   -0.00000000   -0.66751999
     The ionic contribution  to forces
     atom    1 type  1   force =     7.64753829   -0.00000000   92.19859486
     atom    2 type  1   force =    -3.82376914    6.62296243   92.19859486
     atom    3 type  1   force =    -3.82376914   -6.62296243   92.19859486
     atom    4 type  1   force =    -7.64808357   -0.00000000  -92.19923588
     atom    5 type  1   force =     3.82404178   -6.62343466  -92.19923588
     atom    6 type  1   force =     3.82404179    6.62343466  -92.19923588
     atom    7 type  2   force =     0.00000000   -0.00000000   18.79964770
     atom    8 type  2   force =     7.08675621   -0.00000000   52.06058381
     atom    9 type  2   force =    -3.54337811    6.13731091   52.06058381
     atom   10 type  2   force =    -3.54337811   -6.13731091   52.06058381
     atom   11 type  2   force =     0.00000000   -0.00000000  191.32142808
     atom   12 type  2   force =   -11.90237153   -0.00000000  207.14558317
     atom   13 type  2   force =     5.95118576  -10.30775611  207.14558317
     atom   14 type  2   force =     5.95118576   10.30775611  207.14558317
     atom   15 type  2   force =    11.90256135   -0.00000000 -207.14410036
     atom   16 type  2   force =    -5.95128067   10.30792050 -207.14410036
     atom   17 type  2   force =    -5.95128067  -10.30792050 -207.14410036
     atom   18 type  2   force =    -0.00000000   -0.00000000 -191.32258569
     atom   19 type  2   force =    -7.08770974   -0.00000000  -52.06044839
     atom   20 type  2   force =     3.54385487   -6.13813669  -52.06044839
     atom   21 type  2   force =     3.54385487    6.13813669  -52.06044839
     atom   22 type  2   force =    -0.00000000   -0.00000000  -18.80142174
     The local contribution  to forces
     atom    1 type  1   force =    -7.49146301   -0.00000000  -92.16263566
     atom    2 type  1   force =     3.74573149   -6.48779728  -92.16263566
     atom    3 type  1   force =     3.74573149    6.48779729  -92.16263566
     atom    4 type  1   force =     7.49200654   -0.00000000   92.16327731
     atom    5 type  1   force =    -3.74600325    6.48826800   92.16327731
     atom    6 type  1   force =    -3.74600325   -6.48826799   92.16327731
     atom    7 type  2   force =    -0.00000001   -0.00000000  -19.46697898
     atom    8 type  2   force =    -6.83984583   -0.00000000  -52.39449097
     atom    9 type  2   force =     3.41992291   -5.92348025  -52.39449097
     atom   10 type  2   force =     3.41992291    5.92348026  -52.39449097
     atom   11 type  2   force =     0.00000000   -0.00000000 -190.94268415
     atom   12 type  2   force =    11.60892402   -0.00000000 -206.70594718
     atom   13 type  2   force =    -5.80446202   10.05362311 -206.70594718
     atom   14 type  2   force =    -5.80446202  -10.05362310 -206.70594718
     atom   15 type  2   force =   -11.60912335   -0.00000000  206.70447397
     atom   16 type  2   force =     5.80456168  -10.05379572  206.70447397
     atom   17 type  2   force =     5.80456168   10.05379572  206.70447397
     atom   18 type  2   force =    -0.00000001   -0.00000000  190.94385649
     atom   19 type  2   force =     6.84082397   -0.00000000   52.39434608
     atom   20 type  2   force =    -3.42041198    5.92432736   52.39434608
     atom   21 type  2   force =    -3.42041198   -5.92432736   52.39434608
     atom   22 type  2   force =     0.00000000   -0.00000000   19.46873478
     The core correction contribution to forces
     atom    1 type  1   force =     0.00000000    0.00000000    0.00000000
     atom    2 type  1   force =     0.00000000    0.00000000    0.00000000
     atom    3 type  1   force =     0.00000000    0.00000000    0.00000000
     atom    4 type  1   force =     0.00000000    0.00000000    0.00000000
     atom    5 type  1   force =     0.00000000    0.00000000    0.00000000
     atom    6 type  1   force =     0.00000000    0.00000000    0.00000000
     atom    7 type  2   force =     0.00000000    0.00000000    0.00000000
     atom    8 type  2   force =     0.00000000    0.00000000    0.00000000
     atom    9 type  2   force =     0.00000000    0.00000000    0.00000000
     atom   10 type  2   force =     0.00000000    0.00000000    0.00000000
     atom   11 type  2   force =     0.00000000    0.00000000    0.00000000
     atom   12 type  2   force =     0.00000000    0.00000000    0.00000000
     atom   13 type  2   force =     0.00000000    0.00000000    0.00000000
     atom   14 type  2   force =     0.00000000    0.00000000    0.00000000
     atom   15 type  2   force =     0.00000000    0.00000000    0.00000000
     atom   16 type  2   force =     0.00000000    0.00000000    0.00000000
     atom   17 type  2   force =     0.00000000    0.00000000    0.00000000
     atom   18 type  2   force =     0.00000000    0.00000000    0.00000000
     atom   19 type  2   force =     0.00000000    0.00000000    0.00000000
     atom   20 type  2   force =     0.00000000    0.00000000    0.00000000
     atom   21 type  2   force =     0.00000000    0.00000000    0.00000000
     atom   22 type  2   force =     0.00000000    0.00000000    0.00000000
     The Hubbard contrib.    to forces
     atom    1 type  1   force =     0.00000000    0.00000000    0.00000000
     atom    2 type  1   force =     0.00000000    0.00000000    0.00000000
     atom    3 type  1   force =     0.00000000    0.00000000    0.00000000
     atom    4 type  1   force =     0.00000000    0.00000000    0.00000000
     atom    5 type  1   force =     0.00000000    0.00000000    0.00000000
     atom    6 type  1   force =     0.00000000    0.00000000    0.00000000
     atom    7 type  2   force =     0.00000000    0.00000000    0.00000000
     atom    8 type  2   force =     0.00000000    0.00000000    0.00000000
     atom    9 type  2   force =     0.00000000    0.00000000    0.00000000
     atom   10 type  2   force =     0.00000000    0.00000000    0.00000000
     atom   11 type  2   force =     0.00000000    0.00000000    0.00000000
     atom   12 type  2   force =     0.00000000    0.00000000    0.00000000
     atom   13 type  2   force =     0.00000000    0.00000000    0.00000000
     atom   14 type  2   force =     0.00000000    0.00000000    0.00000000
     atom   15 type  2   force =     0.00000000    0.00000000    0.00000000
     atom   16 type  2   force =     0.00000000    0.00000000    0.00000000
     atom   17 type  2   force =     0.00000000    0.00000000    0.00000000
     atom   18 type  2   force =     0.00000000    0.00000000    0.00000000
     atom   19 type  2   force =     0.00000000    0.00000000    0.00000000
     atom   20 type  2   force =     0.00000000    0.00000000    0.00000000
     atom   21 type  2   force =     0.00000000    0.00000000    0.00000000
     atom   22 type  2   force =     0.00000000    0.00000000    0.00000000
     The SCF correction term to forces
     atom    1 type  1   force =    -0.00000001    0.00000000    0.00000054
     atom    2 type  1   force =     0.00000001   -0.00000001    0.00000054
     atom    3 type  1   force =     0.00000001    0.00000001    0.00000054
     atom    4 type  1   force =    -0.00000056   -0.00000000    0.00000036
     atom    5 type  1   force =     0.00000028   -0.00000048    0.00000036
     atom    6 type  1   force =     0.00000028    0.00000048    0.00000036
     atom    7 type  2   force =     0.00000000   -0.00000000    0.00000178
     atom    8 type  2   force =    -0.00000011   -0.00000000    0.00000149
     atom    9 type  2   force =     0.00000005   -0.00000009    0.00000149
     atom   10 type  2   force =     0.00000005    0.00000009    0.00000149
     atom   11 type  2   force =    -0.00000000   -0.00000000    0.00000004
     atom   12 type  2   force =     0.00000011   -0.00000000   -0.00000004
     atom   13 type  2   force =    -0.00000006    0.00000010   -0.00000004
     atom   14 type  2   force =    -0.00000006   -0.00000010   -0.00000004
     atom   15 type  2   force =     0.00000057   -0.00000000   -0.00000095
     atom   16 type  2   force =    -0.00000028    0.00000049   -0.00000095
     atom   17 type  2   force =    -0.00000028   -0.00000049   -0.00000095
     atom   18 type  2   force =    -0.00000000   -0.00000000   -0.00000045
     atom   19 type  2   force =    -0.00000000   -0.00000000    0.00000149
     atom   20 type  2   force =     0.00000000   -0.00000000    0.00000149
     atom   21 type  2   force =     0.00000000    0.00000000    0.00000149
     atom   22 type  2   force =    -0.00000000   -0.00000000    0.00000251

     DFT-D3 dispersion contribution to forces:
     atom    1 type  1   force =     0.00000399    0.00000000   -0.00212151
     atom    2 type  1   force =    -0.00000200    0.00000346   -0.00212151
     atom    3 type  1   force =    -0.00000200   -0.00000346   -0.00212151
     atom    4 type  1   force =    -0.00000388    0.00000000    0.00212147
     atom    5 type  1   force =     0.00000194   -0.00000336    0.00212147
     atom    6 type  1   force =     0.00000194    0.00000336    0.00212147
     atom    7 type  2   force =     0.00000000    0.00000000   -0.00020416
     atom    8 type  2   force =     0.00154336    0.00000000   -0.00191716
     atom    9 type  2   force =    -0.00077168    0.00133659   -0.00191716
     atom   10 type  2   force =    -0.00077168   -0.00133659   -0.00191716
     atom   11 type  2   force =    -0.00000000    0.00000000    0.00034214
     atom   12 type  2   force =    -0.00018369    0.00000000   -0.00162252
     atom   13 type  2   force =     0.00009185   -0.00015908   -0.00162252
     atom   14 type  2   force =     0.00009185    0.00015908   -0.00162252
     atom   15 type  2   force =     0.00018390    0.00000000    0.00162307
     atom   16 type  2   force =    -0.00009195    0.00015926    0.00162307
     atom   17 type  2   force =    -0.00009195   -0.00015926    0.00162307
     atom   18 type  2   force =     0.00000000    0.00000000   -0.00034249
     atom   19 type  2   force =    -0.00154377    0.00000000    0.00191663
     atom   20 type  2   force =     0.00077189   -0.00133695    0.00191663
     atom   21 type  2   force =     0.00077189    0.00133695    0.00191663
     atom   22 type  2   force =    -0.00000000    0.00000000    0.00020460

     Total force =     0.000006     Total SCF correction =     0.000005

     DFT-D3 dispersion Force =     0.008926
     SCF correction compared to forces is large: reduce conv_thr to get better values


     Computing stress (Cartesian axis) and pressure

          total   stress  (Ry/bohr**3)                   (kbar)     P=       -0.06
  -0.00000039   0.00000000   0.00000000           -0.06        0.00        0.00
   0.00000000  -0.00000039   0.00000000            0.00       -0.06        0.00
   0.00000000   0.00000000  -0.00000040            0.00        0.00       -0.06

     kinetic stress (kbar)  13344.05      0.00      0.00
                                0.00  13344.05     -0.00
                                0.00      0.00  13318.37

     local   stress (kbar)-440924.62     -0.00     -0.00
                               -0.00-440924.62      0.00
                               -0.00      0.00 433907.44

     nonloc. stress (kbar)  -1064.03      0.00      0.00
                                0.00  -1064.03      0.00
                                0.00      0.00  -1051.71

     hartree stress (kbar) 221035.59     -0.00      0.00
                               -0.00 221035.59     -0.00
                                0.00     -0.00-213389.55

     exc-cor stress (kbar)  -1572.33      0.00     -0.00
                                0.00  -1572.33     -0.00
                               -0.00     -0.00  -1573.34

     corecor stress (kbar)      0.00      0.00      0.00
                                0.00      0.00      0.00
                                0.00      0.00      0.00

     ewald   stress (kbar) 209184.88     -0.00      0.00
                               -0.00 209184.88     -0.00
                                0.00     -0.00-231208.51

     hubbard stress (kbar)      0.00      0.00      0.00
                                0.00      0.00      0.00
                                0.00      0.00      0.00

     DFT-D   stress (kbar)     -3.59     -0.00     -0.00
                               -0.00     -3.59      0.00
                               -0.00      0.00     -2.76

     XDM     stress (kbar)      0.00      0.00      0.00
                                0.00      0.00      0.00
                                0.00      0.00      0.00

     dft-nl  stress (kbar)      0.00      0.00      0.00
                                0.00      0.00      0.00
                                0.00      0.00      0.00

     TS-vdW  stress (kbar)      0.00      0.00      0.00
                                0.00      0.00      0.00
                                0.00      0.00      0.00

     MDB     stress (kbar)      0.00      0.00      0.00
                                0.00      0.00      0.00
                                0.00      0.00      0.00

     3D-RISM stress (kbar)      0.00      0.00      0.00
                                0.00      0.00      0.00
                                0.00      0.00      0.00


     Damped Dynamics Calculation

     Entering Dynamics:    iteration =     1

ATOMIC_POSITIONS (angstrom)
Nb              -9.2825348928        3.8153638329       10.3236001404
Nb              -5.2713385653        1.4994985535       10.3236001404
Nb              -5.2713385653        6.1312291122       10.3236001404
Nb               4.8769328312        3.8153638329        3.4230974778
Nb               0.8657355882        6.1312296408        3.4230974778
Nb               0.8657355882        1.4994980249        3.4230974778
I                2.2028013360        3.8153638329        8.1782935134
I               -4.3506371619        3.8153638329        8.7964914399
I               -1.1288834229        1.9552834445        8.7964914399
I               -1.1288834229        5.6754442212        8.7964914399
I               -6.6084040079        3.8153638329       11.7852877723
I                0.0088010422        3.8153638329       12.2434239224
I               -3.3086025250        5.7306676754       12.2434239224
I               -3.3086025250        1.9000599903       12.2434239224
I               -4.4144041932        3.8153638329        1.5032500531
I               -1.0969999074        1.9000595753        1.5032500531
I               -1.0969999074        5.7306680904        1.5032500531
I                2.2028013360        3.8153638329        1.9613141758
I               -0.0549171576        3.8153638329        4.9503098071
I               -3.2767434252        5.6754860955        4.9503098071
I               -3.2767434252        1.9552415702        4.9503098071
I               -6.6084040079        3.8153638329        5.5684107747



     Writing config-only to output data dir ./out/Nb3I8.save/ :
     XML data file
     NEW-OLD atomic charge density approx. for the potential

     total cpu time spent up to now is      215.2 secs

     per-process dynamical memory:   272.7 Mb

     Self-consistent Calculation

     iteration #  1     ecut=   100.00 Ry     beta= 0.70
     Davidson diagonalization with overlap

---- Real-time Memory Report at c_bands before calling an iterative solver
           504 MiB given to the printing process from OS
           266 MiB allocation reported by mallinfo(arena+hblkhd)
        317701 MiB available memory on the node where the printing process lives
------------------
     ethr =  1.00E-06,  avg # of iterations =  1.7

     Threshold (ethr) on eigenvalues was too large:
     Diagonalizing with lowered threshold

     Davidson diagonalization with overlap

---- Real-time Memory Report at c_bands before calling an iterative solver
           504 MiB given to the printing process from OS
           266 MiB allocation reported by mallinfo(arena+hblkhd)
        317304 MiB available memory on the node where the printing process lives
------------------
     ethr =  3.77E-12,  avg # of iterations =  1.3

     total cpu time spent up to now is      223.8 secs

[...]
     atom    7 type  2   force =    -0.00000000   -0.00000000    0.66753286
     atom    8 type  2   force =    -0.24845034    0.00000000    0.33582761
     atom    9 type  2   force =     0.12422517   -0.21516430    0.33582761
     atom   10 type  2   force =     0.12422517    0.21516430    0.33582761
     atom   11 type  2   force =    -0.00000000    0.00000000   -0.37908318
     atom   12 type  2   force =     0.29363111   -0.00000000   -0.43801079
     atom   13 type  2   force =    -0.14681555    0.25429200   -0.43801079
     atom   14 type  2   force =    -0.14681555   -0.25429200   -0.43801079
     atom   15 type  2   force =    -0.29362182    0.00000000    0.43800436
     atom   16 type  2   force =     0.14681091   -0.25428395    0.43800436
     atom   17 type  2   force =     0.14681091    0.25428395    0.43800436
     atom   18 type  2   force =    -0.00000000    0.00000000    0.37907262
     atom   19 type  2   force =     0.24842671    0.00000000   -0.33581742
     atom   20 type  2   force =    -0.12421336    0.21514384   -0.33581742
     atom   21 type  2   force =    -0.12421336   -0.21514384   -0.33581742
     atom   22 type  2   force =     0.00000000    0.00000000   -0.66751760
     The ionic contribution  to forces
     atom    1 type  1   force =     7.64754932   -0.00000000   92.19787507
     atom    2 type  1   force =    -3.82377466    6.62297198   92.19787507
     atom    3 type  1   force =    -3.82377466   -6.62297198   92.19787507
     atom    4 type  1   force =    -7.64809672   -0.00000000  -92.19851282
     atom    5 type  1   force =     3.82404836   -6.62344605  -92.19851282
     atom    6 type  1   force =     3.82404836    6.62344605  -92.19851282
     atom    7 type  2   force =     0.00000000   -0.00000000   18.79902331
     atom    8 type  2   force =     7.08670369   -0.00000000   52.05961852
     atom    9 type  2   force =    -3.54335185    6.13726543   52.05961852
     atom   10 type  2   force =    -3.54335185   -6.13726542   52.05961852
     atom   11 type  2   force =     0.00000000   -0.00000000  191.32044535
     atom   12 type  2   force =   -11.90241775   -0.00000000  207.14454962
     atom   13 type  2   force =     5.95120888  -10.30779614  207.14454962
     atom   14 type  2   force =     5.95120888   10.30779614  207.14454962
     atom   15 type  2   force =    11.90256404   -0.00000000 -207.14306121
     atom   16 type  2   force =    -5.95128202   10.30792283 -207.14306122
     atom   17 type  2   force =    -5.95128202  -10.30792283 -207.14306121
     atom   18 type  2   force =    -0.00000000   -0.00000000 -191.32161973
     atom   19 type  2   force =    -7.08766684   -0.00000000  -52.05949811
     atom   20 type  2   force =     3.54383342   -6.13809954  -52.05949812
     atom   21 type  2   force =     3.54383342    6.13809954  -52.05949812
     atom   22 type  2   force =    -0.00000000   -0.00000000  -18.80076211
     The local contribution  to forces
     atom    1 type  1   force =    -7.49147407   -0.00000000  -92.16191762
     atom    2 type  1   force =     3.74573702   -6.48780686  -92.16191762
     atom    3 type  1   force =     3.74573702    6.48780686  -92.16191762
     atom    4 type  1   force =     7.49201784   -0.00000000   92.16255450
     atom    5 type  1   force =    -3.74600891    6.48827779   92.16255450
     atom    6 type  1   force =    -3.74600891   -6.48827778   92.16255450
     atom    7 type  2   force =    -0.00000001   -0.00000000  -19.46634943
     atom    8 type  2   force =    -6.83979665   -0.00000000  -52.39352592
     atom    9 type  2   force =     3.41989832   -5.92343766  -52.39352592
     atom   10 type  2   force =     3.41989832    5.92343767  -52.39352592
     atom   11 type  2   force =     0.00000000   -0.00000000 -190.94170021
     atom   12 type  2   force =    11.60896960   -0.00000000 -206.70491189
     atom   13 type  2   force =    -5.80448481   10.05366258 -206.70491189
     atom   14 type  2   force =    -5.80448481  -10.05366257 -206.70491189
     atom   15 type  2   force =   -11.60912582   -0.00000000  206.70343397
     atom   16 type  2   force =     5.80456291  -10.05379785  206.70343397
     atom   17 type  2   force =     5.80456291   10.05379786  206.70343397
     atom   18 type  2   force =    -0.00000001   -0.00000000  190.94288992
     atom   19 type  2   force =     6.84078352   -0.00000000   52.39340083
     atom   20 type  2   force =    -3.42039175    5.92429233   52.39340083
     atom   21 type  2   force =    -3.42039175   -5.92429233   52.39340083
     atom   22 type  2   force =     0.00000000   -0.00000000   19.46807855
     The core correction contribution to forces
     atom    1 type  1   force =     0.00000000    0.00000000    0.00000000
     atom    2 type  1   force =     0.00000000    0.00000000    0.00000000
     atom    3 type  1   force =     0.00000000    0.00000000    0.00000000
     atom    4 type  1   force =     0.00000000    0.00000000    0.00000000
     atom    5 type  1   force =     0.00000000    0.00000000    0.00000000
     atom    6 type  1   force =     0.00000000    0.00000000    0.00000000
     atom    7 type  2   force =     0.00000000    0.00000000    0.00000000
     atom    8 type  2   force =     0.00000000    0.00000000    0.00000000
     atom    9 type  2   force =     0.00000000    0.00000000    0.00000000
     atom   10 type  2   force =     0.00000000    0.00000000    0.00000000
     atom   11 type  2   force =     0.00000000    0.00000000    0.00000000
     atom   12 type  2   force =     0.00000000    0.00000000    0.00000000
     atom   13 type  2   force =     0.00000000    0.00000000    0.00000000
     atom   14 type  2   force =     0.00000000    0.00000000    0.00000000
     atom   15 type  2   force =     0.00000000    0.00000000    0.00000000
     atom   16 type  2   force =     0.00000000    0.00000000    0.00000000
     atom   17 type  2   force =     0.00000000    0.00000000    0.00000000
     atom   18 type  2   force =     0.00000000    0.00000000    0.00000000
     atom   19 type  2   force =     0.00000000    0.00000000    0.00000000
     atom   20 type  2   force =     0.00000000    0.00000000    0.00000000
     atom   21 type  2   force =     0.00000000    0.00000000    0.00000000
     atom   22 type  2   force =     0.00000000    0.00000000    0.00000000
     The Hubbard contrib.    to forces
     atom    1 type  1   force =     0.00000000    0.00000000    0.00000000
     atom    2 type  1   force =     0.00000000    0.00000000    0.00000000
     atom    3 type  1   force =     0.00000000    0.00000000    0.00000000
     atom    4 type  1   force =     0.00000000    0.00000000    0.00000000
     atom    5 type  1   force =     0.00000000    0.00000000    0.00000000
     atom    6 type  1   force =     0.00000000    0.00000000    0.00000000
     atom    7 type  2   force =     0.00000000    0.00000000    0.00000000
     atom    8 type  2   force =     0.00000000    0.00000000    0.00000000
     atom    9 type  2   force =     0.00000000    0.00000000    0.00000000
     atom   10 type  2   force =     0.00000000    0.00000000    0.00000000
     atom   11 type  2   force =     0.00000000    0.00000000    0.00000000
     atom   12 type  2   force =     0.00000000    0.00000000    0.00000000
     atom   13 type  2   force =     0.00000000    0.00000000    0.00000000
     atom   14 type  2   force =     0.00000000    0.00000000    0.00000000
     atom   15 type  2   force =     0.00000000    0.00000000    0.00000000
     atom   16 type  2   force =     0.00000000    0.00000000    0.00000000
     atom   17 type  2   force =     0.00000000    0.00000000    0.00000000
     atom   18 type  2   force =     0.00000000    0.00000000    0.00000000
     atom   19 type  2   force =     0.00000000    0.00000000    0.00000000
     atom   20 type  2   force =     0.00000000    0.00000000    0.00000000
     atom   21 type  2   force =     0.00000000    0.00000000    0.00000000
     atom   22 type  2   force =     0.00000000    0.00000000    0.00000000
     The SCF correction term to forces
     atom    1 type  1   force =    -0.00000035   -0.00000000    0.00000013
     atom    2 type  1   force =     0.00000018   -0.00000030    0.00000013
     atom    3 type  1   force =     0.00000018    0.00000030    0.00000013
     atom    4 type  1   force =     0.00000075   -0.00000000   -0.00000030
     atom    5 type  1   force =    -0.00000037    0.00000065   -0.00000030
     atom    6 type  1   force =    -0.00000037   -0.00000065   -0.00000030
     atom    7 type  2   force =     0.00000000    0.00000000    0.00000020
     atom    8 type  2   force =    -0.00000021    0.00000000   -0.00000037
     atom    9 type  2   force =     0.00000011   -0.00000018   -0.00000037
     atom   10 type  2   force =     0.00000011    0.00000018   -0.00000037
     atom   11 type  2   force =    -0.00000000   -0.00000000   -0.00000159
     atom   12 type  2   force =     0.00000067   -0.00000000   -0.00000182
     atom   13 type  2   force =    -0.00000034    0.00000058   -0.00000182
     atom   14 type  2   force =    -0.00000034   -0.00000058   -0.00000182
     atom   15 type  2   force =    -0.00000050    0.00000000    0.00000082
     atom   16 type  2   force =     0.00000025   -0.00000043    0.00000082
     atom   17 type  2   force =     0.00000025    0.00000043    0.00000082
     atom   18 type  2   force =    -0.00000000   -0.00000000    0.00000068
     atom   19 type  2   force =     0.00000048    0.00000000   -0.00000126
     atom   20 type  2   force =    -0.00000024    0.00000042   -0.00000126
     atom   21 type  2   force =    -0.00000024   -0.00000042   -0.00000126
     atom   22 type  2   force =    -0.00000000   -0.00000000   -0.00000262

     DFT-D3 dispersion contribution to forces:
     atom    1 type  1   force =     0.00000398    0.00000000   -0.00212139
     atom    2 type  1   force =    -0.00000199    0.00000345   -0.00212139
     atom    3 type  1   force =    -0.00000199   -0.00000345   -0.00212139
     atom    4 type  1   force =    -0.00000387    0.00000000    0.00212135
     atom    5 type  1   force =     0.00000193   -0.00000335    0.00212135
     atom    6 type  1   force =     0.00000193    0.00000335    0.00212135
     atom    7 type  2   force =     0.00000000    0.00000000   -0.00020431
     atom    8 type  2   force =     0.00154336    0.00000000   -0.00191729
     atom    9 type  2   force =    -0.00077168    0.00133659   -0.00191729
     atom   10 type  2   force =    -0.00077168   -0.00133659   -0.00191729
     atom   11 type  2   force =    -0.00000000    0.00000000    0.00034218
     atom   12 type  2   force =    -0.00018370    0.00000000   -0.00162253
     atom   13 type  2   force =     0.00009185   -0.00015909   -0.00162253
     atom   14 type  2   force =     0.00009185    0.00015909   -0.00162253
     atom   15 type  2   force =     0.00018391    0.00000000    0.00162307
     atom   16 type  2   force =    -0.00009195    0.00015927    0.00162307
     atom   17 type  2   force =    -0.00009195   -0.00015927    0.00162307
     atom   18 type  2   force =     0.00000000    0.00000000   -0.00034254
     atom   19 type  2   force =    -0.00154378    0.00000000    0.00191676
     atom   20 type  2   force =     0.00077189   -0.00133695    0.00191676
     atom   21 type  2   force =     0.00077189    0.00133695    0.00191676
     atom   22 type  2   force =    -0.00000000    0.00000000    0.00020475

     Total force =     0.000004     Total SCF correction =     0.000006

     DFT-D3 dispersion Force =     0.008926
     SCF correction compared to forces is large: reduce conv_thr to get better values


     Computing stress (Cartesian axis) and pressure

          total   stress  (Ry/bohr**3)                   (kbar)     P=       -0.06
  -0.00000039   0.00000000   0.00000000           -0.06        0.00        0.00
   0.00000000  -0.00000039   0.00000000            0.00       -0.06        0.00
   0.00000000   0.00000000  -0.00000040            0.00        0.00       -0.06

     kinetic stress (kbar)  13344.05      0.00     -0.00
                               -0.00  13344.05     -0.00
                                0.00      0.00  13318.37

     local   stress (kbar)-440919.55      0.00     -0.00
                                0.00-440919.55      0.00
                               -0.00      0.00 433902.33

     nonloc. stress (kbar)  -1064.03     -0.00     -0.00
                               -0.00  -1064.03     -0.00
                                0.00      0.00  -1051.71

     hartree stress (kbar) 221033.05     -0.00     -0.00
                               -0.00 221033.05      0.00
                               -0.00      0.00-213387.00

     exc-cor stress (kbar)  -1572.33     -0.00      0.00
                               -0.00  -1572.33      0.00
                                0.00      0.00  -1573.34

     corecor stress (kbar)      0.00      0.00      0.00
                                0.00      0.00      0.00
                                0.00      0.00      0.00

     ewald   stress (kbar) 209182.34      0.00      0.00
                                0.00 209182.34     -0.00
                                0.00     -0.00-231205.95

     hubbard stress (kbar)      0.00      0.00      0.00
                                0.00      0.00      0.00
                                0.00      0.00      0.00

     DFT-D   stress (kbar)     -3.59     -0.00     -0.00
                               -0.00     -3.59      0.00
                               -0.00      0.00     -2.76

     XDM     stress (kbar)      0.00      0.00      0.00
                                0.00      0.00      0.00
                                0.00      0.00      0.00

     dft-nl  stress (kbar)      0.00      0.00      0.00
                                0.00      0.00      0.00
                                0.00      0.00      0.00

     TS-vdW  stress (kbar)      0.00      0.00      0.00
                                0.00      0.00      0.00
                                0.00      0.00      0.00

     MDB     stress (kbar)      0.00      0.00      0.00
                                0.00      0.00      0.00
                                0.00      0.00      0.00

     3D-RISM stress (kbar)      0.00      0.00      0.00
                                0.00      0.00      0.00
                                0.00      0.00      0.00


     Damped Dynamics: convergence achieved in  23 steps

     End of damped dynamics calculation

     Final energy =   -3864.9316038317 Ry

Begin final coordinates
     new unit-cell volume =  11694.93906 a.u.^3 (  1733.01117 Ang^3 )
     density =      2.47969 g/cm^3

CELL_PARAMETERS (angstrom)
   6.608404008   3.815363833   0.000000000
  -6.608404008   3.815363833   0.000000000
   0.000000000   0.000000000  34.366778354

ATOMIC_POSITIONS (angstrom)
Nb              -9.2825350068        3.8153638329       10.3236420944
Nb              -5.2713385083        1.4994984547       10.3236420944
Nb              -5.2713385083        6.1312292110       10.3236420944
Nb               4.8769330780        3.8153638329        3.4230569807
Nb               0.8657354648        6.1312298544        3.4230569807
Nb               0.8657354648        1.4994978113        3.4230569807
I                2.2028013360        3.8153638329        8.1783307747
I               -4.3506402417        3.8153638329        8.7965276603
I               -1.1288818831        1.9552807774        8.7965276603
I               -1.1288818831        5.6754468883        8.7965276603
I               -6.6084040079        3.8153638329       11.7853314077
I                0.0088017810        3.8153638329       12.2434663197
I               -3.3086028944        5.7306683153       12.2434663197
I               -3.3086028944        1.9000593504       12.2434663197
I               -4.4144045201        3.8153638329        1.5032072254
I               -1.0969997439        1.9000592922        1.5032072254
I               -1.0969997439        5.7306683735        1.5032072254
I                2.2028013360        3.8153638329        1.9612700737
I               -0.0549140103        3.8153638329        4.9502729097
I               -3.2767449988        5.6754888212        4.9502729097
I               -3.2767449988        1.9552388445        4.9502729097
I               -6.6084040079        3.8153638329        5.5683729316
End final coordinates



     Writing all to output data dir ./out/Nb3I8.save/ :
     XML data file, charge density, pseudopotentials, collected wavefunctions

     init_run     :      3.37s CPU      3.78s WALL (       1 calls)
     electrons    :   1150.19s CPU   1270.89s WALL (      24 calls)
     update_pot   :    129.99s CPU    218.78s WALL (      23 calls)
     forces       :     25.03s CPU     26.73s WALL (      24 calls)
     force_dftd3  :      0.47s CPU      0.50s WALL (      24 calls)
     stress       :    338.91s CPU    347.25s WALL (      24 calls)
     stres_dftd3  :      0.26s CPU      0.28s WALL (      24 calls)

     Called by init_run:
     wfcinit      :      1.86s CPU      1.98s WALL (       1 calls)
     wfcinit:wfcr :      1.75s CPU      1.86s WALL (       1 calls)
     potinit      :      0.12s CPU      0.31s WALL (       1 calls)
     hinit0       :      0.80s CPU      0.84s WALL (       1 calls)

     Called by electrons:
     c_bands      :   1033.45s CPU   1089.93s WALL (     178 calls)
     sum_band     :     87.16s CPU     94.80s WALL (     178 calls)
     v_of_rho     :     20.49s CPU     21.85s WALL (     178 calls)
     v_h          :      1.51s CPU      1.67s WALL (     178 calls)
     v_xc         :     18.97s CPU     20.18s WALL (     178 calls)
     mix_rho      :      4.46s CPU      4.65s WALL (     178 calls)
     energy_dftd3 :      0.10s CPU      0.10s WALL (      24 calls)

     Called by c_bands:
     init_us_2    :     21.83s CPU     22.32s WALL (     357 calls)
     cegterg      :    908.69s CPU    963.51s WALL (     178 calls)

     Called by sum_band:
     sum_band:wei :      0.40s CPU      0.41s WALL (     178 calls)
     sum_band:loo :     80.58s CPU     87.35s WALL (     178 calls)
     sum_band:buf :      0.00s CPU      0.00s WALL (     178 calls)
     sum_band:ini :     11.28s CPU     11.51s WALL (     178 calls)

     Called by *egterg:
     cdiaghg      :     54.86s CPU     56.50s WALL (    1977 calls)
     cegterg:over :    116.42s CPU    118.26s WALL (    1846 calls)
     cegterg:upda :    100.15s CPU    104.47s WALL (    1846 calls)
     cegterg:last :    112.71s CPU    114.58s WALL (     386 calls)
     cdiaghg:chol :      4.24s CPU      4.31s WALL (    1977 calls)
     cdiaghg:inve :      0.88s CPU      0.89s WALL (    1977 calls)
     cdiaghg:para :     15.18s CPU     16.12s WALL (    3954 calls)
     h_psi        :    489.97s CPU    532.95s WALL (    2025 calls)
     g_psi        :      3.88s CPU      3.97s WALL (    1846 calls)

     Called by h_psi:
     h_psi:calbec :     95.50s CPU     97.16s WALL (    2025 calls)
     vloc_psi     :    291.70s CPU    326.87s WALL (    2025 calls)
     add_vuspsi   :     95.57s CPU     97.16s WALL (    2025 calls)

     General routines
     calbec       :    155.16s CPU    157.62s WALL (    2167 calls)
     fft          :      8.72s CPU     10.23s WALL (    1995 calls)
     ffts         :      0.71s CPU      0.86s WALL (     178 calls)
     fftw         :    301.31s CPU    338.39s WALL (  232188 calls)
     davcio       :      0.02s CPU     46.57s WALL (      88 calls)

     Parallel routines

     PWSCF        :   1693.05s CPU   2084.98s WALL


   This run was terminated on:  23:52:27   7May2025            

=------------------------------------------------------------------------------=
   JOB DONE.
=------------------------------------------------------------------------------=
